 TITLE = "Profiles along polylines"
 VARIABLES = "DIST" "CONCENTRATION1" 
 ZONE T="TIME=0.000000000000e+00"
0.000000000000e+00 0.000000000000e+00 
1.000000000000e-01 0.000000000000e+00 
2.000000000000e-01 0.000000000000e+00 
3.000000000000e-01 0.000000000000e+00 
4.000000000000e-01 0.000000000000e+00 
5.000000000000e-01 0.000000000000e+00 
6.000000000000e-01 0.000000000000e+00 
7.000000000000e-01 0.000000000000e+00 
8.000000000000e-01 0.000000000000e+00 
9.000000000000e-01 0.000000000000e+00 
1.000000000000e+00 0.000000000000e+00 
1.100000000000e+00 0.000000000000e+00 
1.200000000000e+00 0.000000000000e+00 
1.300000000000e+00 0.000000000000e+00 
1.400000000000e+00 0.000000000000e+00 
1.500000000000e+00 0.000000000000e+00 
1.600000000000e+00 0.000000000000e+00 
1.700000000000e+00 0.000000000000e+00 
1.800000000000e+00 0.000000000000e+00 
1.900000000000e+00 0.000000000000e+00 
2.000000000000e+00 0.000000000000e+00 
2.100000000000e+00 0.000000000000e+00 
2.200000000000e+00 0.000000000000e+00 
2.300000000000e+00 0.000000000000e+00 
2.400000000000e+00 0.000000000000e+00 
2.500000000000e+00 0.000000000000e+00 
2.600000000000e+00 0.000000000000e+00 
2.700000000000e+00 0.000000000000e+00 
2.800000000000e+00 0.000000000000e+00 
2.900000000000e+00 0.000000000000e+00 
3.000000000000e+00 0.000000000000e+00 
3.100000000000e+00 0.000000000000e+00 
3.200000000000e+00 0.000000000000e+00 
3.300000000000e+00 0.000000000000e+00 
3.400000000000e+00 0.000000000000e+00 
3.500000000000e+00 0.000000000000e+00 
3.600000000000e+00 0.000000000000e+00 
3.700000000000e+00 0.000000000000e+00 
3.800000000000e+00 0.000000000000e+00 
3.900000000000e+00 0.000000000000e+00 
4.000000000000e+00 0.000000000000e+00 
 TITLE = "Profiles along polylines"
 VARIABLES = "DIST" "CONCENTRATION1" 
 ZONE T="TIME=7.200000000000e+03"
0.000000000000e+00 0.000000000000e+00 
1.000000000000e-01 5.278303851280e-23 
2.000000000000e-01 -2.639287967198e-22 
3.000000000000e-01 1.277495310713e-21 
4.000000000000e-01 -5.966902182396e-21 
5.000000000000e-01 2.484145330405e-20 
6.000000000000e-01 -8.578629536839e-20 
7.000000000000e-01 1.717488693552e-19 
8.000000000000e-01 -4.967574763708e-19 
9.000000000000e-01 5.267590469002e-19 
1.000000000000e+00 2.030415242397e-18 
1.100000000000e+00 1.983146555273e-18 
1.200000000000e+00 1.062175355696e-18 
1.300000000000e+00 3.516223087628e-19 
1.400000000000e+00 7.586240982327e-20 
1.500000000000e+00 7.809890969729e-21 
1.600000000000e+00 2.198690972923e-22 
1.700000000000e+00 -8.660950122736e-23 
1.800000000000e+00 3.125271148759e-24 
1.900000000000e+00 2.506839249155e-25 
2.000000000000e+00 -4.175330261397e-26 
2.100000000000e+00 3.293010139996e-27 
2.200000000000e+00 -1.572706174417e-28 
2.300000000000e+00 -1.370073992253e-30 
2.400000000000e+00 1.554330379922e-30 
2.500000000000e+00 -2.607188363324e-31 
2.600000000000e+00 3.245792223235e-32 
2.700000000000e+00 -3.360891361868e-33 
2.800000000000e+00 2.735109387027e-34 
2.900000000000e+00 -9.798631600482e-36 
3.000000000000e+00 -2.580887365071e-36 
3.100000000000e+00 9.137906505534e-37 
3.200000000000e+00 -2.088672320170e-37 
3.300000000000e+00 4.223490704451e-38 
3.400000000000e+00 -8.293186508758e-39 
3.500000000000e+00 1.659846682776e-39 
3.600000000000e+00 -3.473007887970e-40 
3.700000000000e+00 7.648749109390e-41 
3.800000000000e+00 -1.759150584936e-41 
3.900000000000e+00 3.973779801886e-42 
4.000000000000e+00 0.000000000000e+00 
 ZONE T="TIME=1.440000000000e+04"
0.000000000000e+00 0.000000000000e+00 
1.000000000000e-01 1.727185286443e-21 
2.000000000000e-01 -8.786727868753e-21 
3.000000000000e-01 4.338226889467e-20 
4.000000000000e-01 -2.061712085334e-19 
5.000000000000e-01 8.653226566411e-19 
6.000000000000e-01 -2.952564468102e-18 
7.000000000000e-01 5.312524575506e-18 
8.000000000000e-01 -1.483739801130e-17 
9.000000000000e-01 1.131397499201e-17 
1.000000000000e+00 8.279973860839e-17 
1.100000000000e+00 6.323716911273e-17 
1.200000000000e+00 4.871487955018e-17 
1.300000000000e+00 6.221854439858e-18 
1.400000000000e+00 1.005487805265e-18 
1.500000000000e+00 1.241123047608e-19 
1.600000000000e+00 5.767286977741e-21 
1.700000000000e+00 -5.915601177187e-22 
1.800000000000e+00 -4.567566417411e-23 
1.900000000000e+00 6.422918751437e-24 
2.000000000000e+00 -2.068657127199e-25 
2.100000000000e+00 -2.580692586268e-26 
2.200000000000e+00 5.192524704670e-27 
2.300000000000e+00 -5.667254138158e-28 
2.400000000000e+00 4.456069222846e-29 
2.500000000000e+00 -1.930798261861e-30 
2.600000000000e+00 -1.675395256722e-31 
2.700000000000e+00 6.130464337147e-32 
2.800000000000e+00 -1.097931879533e-32 
2.900000000000e+00 1.519930444271e-33 
3.000000000000e+00 -1.661594127930e-34 
3.100000000000e+00 1.084156201847e-35 
3.200000000000e+00 1.085853796332e-36 
3.300000000000e+00 -6.658243908441e-37 
3.400000000000e+00 1.969140164998e-37 
3.500000000000e+00 -4.995079055958e-38 
3.600000000000e+00 1.217844929235e-38 
3.700000000000e+00 -2.965779664158e-39 
3.800000000000e+00 7.272408456427e-40 
3.900000000000e+00 -1.701217105903e-40 
4.000000000000e+00 0.000000000000e+00 
 ZONE T="TIME=2.160000000000e+04"
0.000000000000e+00 0.000000000000e+00 
1.000000000000e-01 3.599928835450e-20 
2.000000000000e-01 -1.830608143277e-19 
3.000000000000e-01 9.039878244057e-19 
4.000000000000e-01 -4.304251139037e-18 
5.000000000000e-01 1.815583263826e-17 
6.000000000000e-01 -6.221273086914e-17 
7.000000000000e-01 1.163197110619e-16 
8.000000000000e-01 -3.066809130051e-16 
9.000000000000e-01 2.538427102036e-16 
1.000000000000e+00 1.393925221917e-15 
1.100000000000e+00 1.299079351700e-15 
1.200000000000e+00 8.615827276331e-16 
1.300000000000e+00 1.707961019774e-16 
1.400000000000e+00 2.695038408787e-17 
1.500000000000e+00 2.492014117546e-18 
1.600000000000e+00 3.159627887734e-20 
1.700000000000e+00 -1.317232803735e-20 
1.800000000000e+00 -3.858434707157e-23 
1.900000000000e+00 5.796638745433e-23 
2.000000000000e+00 -2.981199773243e-24 
2.100000000000e+00 -7.161446362046e-26 
2.200000000000e+00 2.349334746814e-26 
2.300000000000e+00 -1.960882406666e-27 
2.400000000000e+00 3.373889002785e-29 
2.500000000000e+00 1.788469027215e-29 
2.600000000000e+00 -3.774093373683e-30 
2.700000000000e+00 4.881621941699e-31 
2.800000000000e+00 -4.042572904110e-32 
2.900000000000e+00 -4.172884441095e-34 
3.000000000000e+00 1.113521878786e-33 
3.100000000000e+00 -3.227297636059e-34 
3.200000000000e+00 7.072388857961e-35 
3.300000000000e+00 -1.393478002573e-35 
3.400000000000e+00 2.656899086648e-36 
3.500000000000e+00 -5.138803268815e-37 
3.600000000000e+00 1.037923165339e-37 
3.700000000000e+00 -2.213287104099e-38 
3.800000000000e+00 4.957153204128e-39 
3.900000000000e+00 -1.099372571161e-39 
4.000000000000e+00 0.000000000000e+00 
 ZONE T="TIME=2.880000000000e+04"
0.000000000000e+00 0.000000000000e+00 
1.000000000000e-01 4.511506879971e-19 
2.000000000000e-01 -2.312677013519e-18 
3.000000000000e-01 1.152440961002e-17 
4.000000000000e-01 -5.531631567142e-17 
5.000000000000e-01 2.344684623819e-16 
6.000000000000e-01 -7.998019105962e-16 
7.000000000000e-01 1.456401489219e-15 
8.000000000000e-01 -3.660953014788e-15 
9.000000000000e-01 2.658254883449e-15 
1.000000000000e+00 1.703226185469e-14 
1.100000000000e+00 1.594515898571e-14 
1.200000000000e+00 1.122278743811e-14 
1.300000000000e+00 2.802867404261e-15 
1.400000000000e+00 5.046379563036e-16 
1.500000000000e+00 5.238775599727e-17 
1.600000000000e+00 1.057822688104e-18 
1.700000000000e+00 -2.965756901543e-19 
1.800000000000e+00 -3.792814444540e-21 
1.900000000000e+00 1.753499730941e-21 
2.000000000000e+00 -1.053440102389e-22 
2.100000000000e+00 -1.960955732346e-25 
2.200000000000e+00 7.095190997150e-25 
2.300000000000e+00 -9.515398776470e-26 
2.400000000000e+00 8.682543735597e-27 
2.500000000000e+00 -5.701548124458e-28 
2.600000000000e+00 1.270481838288e-29 
2.700000000000e+00 4.085113774046e-30 
2.800000000000e+00 -9.666214700448e-31 
2.900000000000e+00 1.418751471455e-31 
3.000000000000e+00 -1.523168953518e-32 
3.100000000000e+00 8.454148460790e-34 
3.200000000000e+00 1.379887125080e-34 
3.300000000000e+00 -6.575870546492e-35 
3.400000000000e+00 1.774106224033e-35 
3.500000000000e+00 -4.193742531256e-36 
3.600000000000e+00 9.660240618422e-37 
3.700000000000e+00 -2.252659569666e-37 
3.800000000000e+00 5.354522589877e-38 
3.900000000000e+00 -1.228194717455e-38 
4.000000000000e+00 0.000000000000e+00 
 ZONE T="TIME=3.600000000000e+04"
0.000000000000e+00 0.000000000000e+00 
1.000000000000e-01 2.465060917057e-18 
2.000000000000e-01 -1.347760750495e-17 
3.000000000000e-01 7.180659174679e-17 
4.000000000000e-01 -3.629785168988e-16 
5.000000000000e-01 1.568968029124e-15 
6.000000000000e-01 -5.184332463174e-15 
7.000000000000e-01 6.252188507949e-15 
8.000000000000e-01 -1.600034406476e-14 
9.000000000000e-01 -6.687252286568e-15 
1.000000000000e+00 1.911174635507e-13 
1.100000000000e+00 1.187546398355e-13 
1.200000000000e+00 6.071013137712e-14 
1.300000000000e+00 2.049284924258e-14 
1.400000000000e+00 4.172900089723e-15 
1.500000000000e+00 4.616199222413e-16 
1.600000000000e+00 1.697983370565e-17 
1.700000000000e+00 -2.217002281541e-18 
1.800000000000e+00 -1.314297724800e-19 
1.900000000000e+00 1.819946038262e-20 
2.000000000000e+00 -3.746941560137e-22 
2.100000000000e+00 -8.981323888283e-23 
2.200000000000e+00 1.361797827927e-23 
2.300000000000e+00 -1.160754780561e-24 
2.400000000000e+00 5.638743980179e-26 
2.500000000000e+00 2.294027954400e-27 
2.600000000000e+00 -1.080365621643e-27 
2.700000000000e+00 1.858594491046e-28 
2.800000000000e+00 -2.389425675171e-29 
2.900000000000e+00 2.396640612361e-30 
3.000000000000e+00 -1.414131581545e-31 
3.100000000000e+00 -1.386332236284e-32 
3.200000000000e+00 7.572702772464e-33 
3.300000000000e+00 -2.036315341566e-33 
3.400000000000e+00 4.695491745580e-34 
3.500000000000e+00 -1.044918212754e-34 
3.600000000000e+00 2.351154638153e-35 
3.700000000000e+00 -5.437783938009e-36 
3.800000000000e+00 1.290003798738e-36 
3.900000000000e+00 -2.960889583399e-37 
4.000000000000e+00 0.000000000000e+00 
 ZONE T="TIME=4.320000000000e+04"
0.000000000000e+00 0.000000000000e+00 
1.000000000000e-01 1.334693253316e-17 
2.000000000000e-01 -7.651983687631e-17 
3.000000000000e-01 4.278447326129e-16 
4.000000000000e-01 -2.247604230689e-15 
5.000000000000e-01 9.920083028150e-15 
6.000000000000e-01 -3.259620289515e-14 
7.000000000000e-01 2.866877511810e-14 
8.000000000000e-01 -8.354558249261e-14 
9.000000000000e-01 -9.747046089187e-14 
1.000000000000e+00 1.391821910478e-12 
1.100000000000e+00 9.540650508015e-13 
1.200000000000e+00 3.994567174103e-13 
1.300000000000e+00 1.207846870207e-13 
1.400000000000e+00 2.719577201899e-14 
1.500000000000e+00 3.745480108197e-15 
1.600000000000e+00 1.992962596934e-16 
1.700000000000e+00 -1.457440201753e-17 
1.800000000000e+00 -1.508916367650e-18 
1.900000000000e+00 1.233806386961e-19 
2.000000000000e+00 2.833268957256e-21 
2.100000000000e+00 -1.106069023328e-21 
2.200000000000e+00 1.010057096696e-22 
2.300000000000e+00 -3.892734370536e-24 
2.400000000000e+00 -3.852391549439e-25 
2.500000000000e+00 1.072306594413e-25 
2.600000000000e+00 -1.499955287433e-26 
2.700000000000e+00 1.496250204749e-27 
2.800000000000e+00 -8.386922731591e-29 
2.900000000000e+00 -7.918700342531e-30 
3.000000000000e+00 3.878046032730e-30 
3.100000000000e+00 -9.194060553403e-31 
3.200000000000e+00 1.809047017980e-31 
3.300000000000e+00 -3.319654624508e-32 
3.400000000000e+00 6.019799251002e-33 
3.500000000000e+00 -1.122079196695e-33 
3.600000000000e+00 2.203749828656e-34 
3.700000000000e+00 -4.601223758786e-35 
3.800000000000e+00 1.015243996699e-35 
3.900000000000e+00 -2.231906813718e-36 
4.000000000000e+00 0.000000000000e+00 
 ZONE T="TIME=5.040000000000e+04"
0.000000000000e+00 0.000000000000e+00 
1.000000000000e-01 8.118810932581e-17 
2.000000000000e-01 -4.677297077895e-16 
3.000000000000e-01 2.635481320154e-15 
4.000000000000e-01 -1.396770880739e-14 
5.000000000000e-01 6.217135373206e-14 
6.000000000000e-01 -2.051875197031e-13 
7.000000000000e-01 1.785105615819e-13 
8.000000000000e-01 -5.296200018131e-13 
9.000000000000e-01 -5.746512929996e-13 
1.000000000000e+00 8.123781268974e-12 
1.100000000000e+00 6.433084454752e-12 
1.200000000000e+00 2.719269637227e-12 
1.300000000000e+00 7.616196578904e-13 
1.400000000000e+00 1.601432239196e-13 
1.500000000000e+00 2.344651591051e-14 
1.600000000000e+00 1.742265365928e-15 
1.700000000000e+00 -5.201325546735e-17 
1.800000000000e+00 -1.382246807215e-17 
1.900000000000e+00 5.816556612039e-19 
2.000000000000e+00 6.116502697491e-20 
2.100000000000e+00 -9.055579324508e-21 
2.200000000000e+00 4.954843582721e-22 
2.300000000000e+00 1.294012652084e-23 
2.400000000000e+00 -6.453875459056e-24 
2.500000000000e+00 8.906155830903e-25 
2.600000000000e+00 -7.786265905059e-26 
2.700000000000e+00 2.447997540757e-27 
2.800000000000e+00 7.691557831950e-28 
2.900000000000e+00 -2.303854572197e-28 
3.000000000000e+00 4.343169426336e-29 
3.100000000000e+00 -6.725656129965e-30 
3.200000000000e+00 8.952753010684e-31 
3.300000000000e+00 -9.761896610202e-32 
3.400000000000e+00 6.066448835786e-33 
3.500000000000e+00 9.921595034762e-34 
3.600000000000e+00 -5.848070916435e-34 
3.700000000000e+00 1.926142066792e-34 
3.800000000000e+00 -5.469942293903e-35 
3.900000000000e+00 1.374686376415e-35 
4.000000000000e+00 0.000000000000e+00 
 ZONE T="TIME=5.760000000000e+04"
0.000000000000e+00 0.000000000000e+00 
1.000000000000e-01 4.828084250493e-16 
2.000000000000e-01 -2.751275829100e-15 
3.000000000000e-01 1.537089036486e-14 
4.000000000000e-01 -8.110361838202e-14 
5.000000000000e-01 3.612250860923e-13 
6.000000000000e-01 -1.196190206620e-12 
7.000000000000e-01 1.166524276421e-12 
8.000000000000e-01 -3.224493959085e-12 
9.000000000000e-01 -2.578724780108e-12 
1.000000000000e+00 4.051254027054e-11 
1.100000000000e+00 3.633967495792e-11 
1.200000000000e+00 1.654907240681e-11 
1.300000000000e+00 4.770167598166e-12 
1.400000000000e+00 9.663286204892e-13 
1.500000000000e+00 1.350323925393e-13 
1.600000000000e+00 1.077715408662e-14 
1.700000000000e+00 -4.894362115279e-17 
1.800000000000e+00 -8.128239595506e-17 
1.900000000000e+00 4.411830397943e-19 
2.000000000000e+00 5.621735119062e-19 
2.100000000000e+00 -4.568599563652e-20 
2.200000000000e+00 1.756692460800e-22 
2.300000000000e+00 3.755629947367e-22 
2.400000000000e+00 -5.503802073323e-23 
2.500000000000e+00 4.670472543735e-24 
2.600000000000e+00 -1.398528376582e-25 
2.700000000000e+00 -3.919577355382e-26 
2.800000000000e+00 1.057870206845e-26 
2.900000000000e+00 -1.724271005529e-27 
3.000000000000e+00 2.128573377020e-28 
3.100000000000e+00 -1.745271075726e-29 
3.200000000000e+00 -4.992563173568e-31 
3.300000000000e+00 6.882579873886e-31 
3.400000000000e+00 -2.252922674523e-31 
3.500000000000e+00 5.968178593045e-32 
3.600000000000e+00 -1.487032433350e-32 
3.700000000000e+00 3.659539346516e-33 
3.800000000000e+00 -9.012161550923e-34 
3.900000000000e+00 2.109946610147e-34 
4.000000000000e+00 0.000000000000e+00 
 ZONE T="TIME=6.480000000000e+04"
0.000000000000e+00 0.000000000000e+00 
1.000000000000e-01 2.558941887136e-15 
2.000000000000e-01 -1.445508926150e-14 
3.000000000000e-01 8.012207533745e-14 
4.000000000000e-01 -4.204476371120e-13 
5.000000000000e-01 1.869497068895e-12 
6.000000000000e-01 -6.191496025083e-12 
7.000000000000e-01 6.681191052552e-12 
8.000000000000e-01 -1.708059601185e-11 
9.000000000000e-01 -1.009276238097e-11 
1.000000000000e+00 1.776540452197e-10 
1.100000000000e+00 1.767236271026e-10 
1.200000000000e+00 8.748081952034e-11 
1.300000000000e+00 2.709775136446e-11 
1.400000000000e+00 5.685054911585e-12 
1.500000000000e+00 7.853118443363e-13 
1.600000000000e+00 6.005958160878e-14 
1.700000000000e+00 8.234600648230e-17 
1.800000000000e+00 -3.776906493413e-16 
1.900000000000e+00 -6.154531740520e-18 
2.000000000000e+00 2.678996816703e-18 
2.100000000000e+00 -1.049918324830e-19 
2.200000000000e+00 -1.304304204361e-20 
2.300000000000e+00 2.457782416922e-21 
2.400000000000e+00 -2.005459775524e-22 
2.500000000000e+00 2.702329790013e-24 
2.600000000000e+00 2.185449385954e-24 
2.700000000000e+00 -4.666170597695e-25 
2.800000000000e+00 6.246221287876e-26 
2.900000000000e+00 -5.543793547862e-27 
3.000000000000e+00 3.153108128339e-29 
3.100000000000e+00 1.331770282175e-28 
3.200000000000e+00 -4.248438369784e-29 
3.300000000000e+00 1.013483999581e-29 
3.400000000000e+00 -2.206822944407e-30 
3.500000000000e+00 4.722786917860e-31 
3.600000000000e+00 -1.030139333558e-31 
3.700000000000e+00 2.323139114485e-32 
3.800000000000e+00 -5.403743248000e-33 
3.900000000000e+00 1.223696987898e-33 
4.000000000000e+00 0.000000000000e+00 
 ZONE T="TIME=7.200000000000e+04"
0.000000000000e+00 0.000000000000e+00 
1.000000000000e-01 1.186135952486e-14 
2.000000000000e-01 -6.675960269957e-14 
3.000000000000e-01 3.686756411706e-13 
4.000000000000e-01 -1.928408187759e-12 
5.000000000000e-01 8.559303276992e-12 
6.000000000000e-01 -2.827963310663e-11 
7.000000000000e-01 3.265735752509e-11 
8.000000000000e-01 -7.820296143829e-11 
9.000000000000e-01 -3.653773054621e-11 
1.000000000000e+00 6.966245274421e-10 
1.100000000000e+00 7.564024986859e-10 
1.200000000000e+00 4.051585122245e-10 
1.300000000000e+00 1.359604977104e-10 
1.400000000000e+00 3.059474795619e-11 
1.500000000000e+00 4.446100699509e-12 
1.600000000000e+00 3.435442199963e-13 
1.700000000000e+00 -1.087463375152e-16 
1.800000000000e+00 -1.928673539970e-15 
1.900000000000e+00 -2.114593284746e-17 
2.000000000000e+00 1.012681253979e-17 
2.100000000000e+00 -2.421239246612e-19 
2.200000000000e+00 -5.336378652454e-20 
2.300000000000e+00 6.091348335487e-21 
2.400000000000e+00 -7.411036598125e-23 
2.500000000000e+00 -7.032490481545e-23 
2.600000000000e+00 1.321567282310e-23 
2.700000000000e+00 -1.387146353004e-24 
2.800000000000e+00 4.820567862238e-26 
2.900000000000e+00 1.883941326757e-26 
3.000000000000e+00 -6.325183037876e-27 
3.100000000000e+00 1.363563900288e-27 
3.200000000000e+00 -2.487248182464e-28 
3.300000000000e+00 4.158500541864e-29 
3.400000000000e+00 -6.645373088390e-30 
3.500000000000e+00 1.046512296403e-30 
3.600000000000e+00 -1.662095554464e-31 
3.700000000000e+00 2.702371686141e-32 
3.800000000000e+00 -4.539972889675e-33 
3.900000000000e+00 7.789303447450e-34 
4.000000000000e+00 0.000000000000e+00 
 ZONE T="TIME=7.920000000000e+04"
0.000000000000e+00 0.000000000000e+00 
1.000000000000e-01 4.842458239886e-14 
2.000000000000e-01 -2.727087791703e-13 
3.000000000000e-01 1.506240366814e-12 
4.000000000000e-01 -7.871911381838e-12 
5.000000000000e-01 3.489241361876e-11 
6.000000000000e-01 -1.148202692267e-10 
7.000000000000e-01 1.381939595092e-10 
8.000000000000e-01 -3.139755461413e-10 
9.000000000000e-01 -1.260401376304e-10 
1.000000000000e+00 2.471813830854e-09 
1.100000000000e+00 2.896120391663e-09 
1.200000000000e+00 1.667632673681e-09 
1.300000000000e+00 6.044527163546e-10 
1.400000000000e+00 1.471910342174e-10 
1.500000000000e+00 2.322000077962e-11 
1.600000000000e+00 1.962779152302e-12 
1.700000000000e+00 6.867819067938e-15 
1.800000000000e+00 -1.111615238974e-14 
1.900000000000e+00 -5.463257011056e-17 
2.000000000000e+00 5.350646419557e-17 
2.100000000000e+00 -2.525750542304e-18 
2.200000000000e+00 -5.126014235389e-20 
2.300000000000e+00 1.093199576501e-20 
2.400000000000e+00 -8.981977258684e-23 
2.500000000000e+00 -8.370706040270e-23 
2.600000000000e+00 3.906664149364e-24 
2.700000000000e+00 2.149709758726e-24 
2.800000000000e+00 -6.908107904047e-25 
2.900000000000e+00 1.323650336917e-25 
3.000000000000e+00 -1.914076617812e-26 
3.100000000000e+00 1.988059910049e-27 
3.200000000000e+00 -4.792752189584e-29 
3.300000000000e+00 -5.006700205846e-29 
3.400000000000e+00 2.001603429412e-29 
3.500000000000e+00 -5.797913627787e-30 
3.600000000000e+00 1.525153258908e-30 
3.700000000000e+00 -3.889407443957e-31 
3.800000000000e+00 9.810514371577e-32 
3.900000000000e+00 -2.332566887288e-32 
4.000000000000e+00 0.000000000000e+00 
 ZONE T="TIME=8.640000000000e+04"
0.000000000000e+00 0.000000000000e+00 
1.000000000000e-01 1.762295837279e-13 
2.000000000000e-01 -9.961930578579e-13 
3.000000000000e-01 5.519418334375e-12 
4.000000000000e-01 -2.887657245496e-11 
5.000000000000e-01 1.278820776370e-10 
6.000000000000e-01 -4.186672628160e-10 
7.000000000000e-01 5.155275568504e-10 
8.000000000000e-01 -1.122701066047e-09 
9.000000000000e-01 -4.190355568694e-10 
1.000000000000e+00 8.010258510707e-09 
1.100000000000e+00 1.004280812841e-08 
1.200000000000e+00 6.179563811302e-09 
1.300000000000e+00 2.406477038736e-09 
1.400000000000e+00 6.333597438626e-10 
1.500000000000e+00 1.093193187665e-10 
1.600000000000e+00 1.047236635190e-11 
1.700000000000e+00 1.455073345356e-13 
1.800000000000e+00 -6.011533703045e-14 
1.900000000000e+00 -8.842243594964e-16 
2.000000000000e+00 3.495167973639e-16 
2.100000000000e+00 -1.788517330807e-17 
2.200000000000e+00 -2.894415876483e-19 
2.300000000000e+00 1.311613304163e-19 
2.400000000000e+00 -1.520107700599e-20 
2.500000000000e+00 1.416310992437e-21 
2.600000000000e+00 -1.237827108908e-22 
2.700000000000e+00 9.017371807990e-24 
2.800000000000e+00 -4.210126286741e-26 
2.900000000000e+00 -2.001590643064e-25 
3.000000000000e+00 6.305064210736e-26 
3.100000000000e+00 -1.466631096768e-26 
3.200000000000e+00 3.028941120467e-27 
3.300000000000e+00 -5.937673716477e-28 
3.400000000000e+00 1.150285063297e-28 
3.500000000000e+00 -2.268476886255e-29 
3.600000000000e+00 4.644530090974e-30 
3.700000000000e+00 -9.952975263361e-31 
3.800000000000e+00 2.223131165338e-31 
3.900000000000e+00 -4.893366189949e-32 
4.000000000000e+00 0.000000000000e+00 
 ZONE T="TIME=9.360000000000e+04"
0.000000000000e+00 0.000000000000e+00 
1.000000000000e-01 5.782029693603e-13 
2.000000000000e-01 -3.288918326734e-12 
3.000000000000e-01 1.832165359480e-11 
4.000000000000e-01 -9.610156548798e-11 
5.000000000000e-01 4.253825017051e-10 
6.000000000000e-01 -1.384392010962e-09 
7.000000000000e-01 1.721314417186e-09 
8.000000000000e-01 -3.622314261490e-09 
9.000000000000e-01 -1.341099979094e-09 
1.000000000000e+00 2.388747157579e-08 
1.100000000000e+00 3.185024511873e-08 
1.200000000000e+00 2.083885439121e-08 
1.300000000000e+00 8.673939657900e-09 
1.400000000000e+00 2.457277079917e-09 
1.500000000000e+00 4.631558725014e-10 
1.600000000000e+00 5.046754664458e-11 
1.700000000000e+00 1.389558717403e-12 
1.800000000000e+00 -2.767714642043e-13 
1.900000000000e+00 -1.019290158487e-14 
2.000000000000e+00 1.958827149119e-15 
2.100000000000e+00 -6.466878764879e-17 
2.200000000000e+00 -6.635342546928e-18 
2.300000000000e+00 1.209064626510e-18 
2.400000000000e+00 -1.102607860011e-19 
2.500000000000e+00 5.914285679292e-21 
2.600000000000e+00 1.745182739013e-22 
2.700000000000e+00 -1.126958095607e-22 
2.800000000000e+00 2.203886739321e-23 
2.900000000000e+00 -3.262735283951e-24 
3.000000000000e+00 3.960249091371e-25 
3.100000000000e+00 -3.527632839409e-26 
3.200000000000e+00 2.786829455125e-28 
3.300000000000e+00 9.564700860145e-28 
3.400000000000e+00 -3.486781839122e-28 
3.500000000000e+00 9.740469282087e-29 
3.600000000000e+00 -2.521244534023e-29 
3.700000000000e+00 6.390223420429e-30 
3.800000000000e+00 -1.609958540550e-30 
3.900000000000e+00 3.831833164806e-31 
4.000000000000e+00 0.000000000000e+00 
 ZONE T="TIME=1.008000000000e+05"
0.000000000000e+00 0.000000000000e+00 
1.000000000000e-01 1.726615771199e-12 
2.000000000000e-01 -9.903430068646e-12 
3.000000000000e-01 5.557618173069e-11 
4.000000000000e-01 -2.926046472098e-10 
5.000000000000e-01 1.294960337702e-09 
6.000000000000e-01 -4.186713283128e-09 
7.000000000000e-01 5.205715217304e-09 
8.000000000000e-01 -1.065666350713e-08 
9.000000000000e-01 -4.101958171208e-09 
1.000000000000e+00 6.596695730748e-08 
1.100000000000e+00 9.311954073600e-08 
1.200000000000e+00 6.452169859355e-08 
1.300000000000e+00 2.857881823411e-08 
1.400000000000e+00 8.676081686044e-09 
1.500000000000e+00 1.777093953648e-09 
1.600000000000e+00 2.184983534616e-10 
1.700000000000e+00 9.216178344366e-12 
1.800000000000e+00 -1.058509836260e-12 
1.900000000000e+00 -7.435065191462e-14 
2.000000000000e+00 8.644939594503e-15 
2.100000000000e+00 -3.485484360909e-17 
2.200000000000e+00 -5.667315257478e-17 
2.300000000000e+00 6.501309253567e-18 
2.400000000000e+00 -3.620379594780e-19 
2.500000000000e+00 -1.003557781015e-20 
2.600000000000e+00 5.864463752278e-21 
2.700000000000e+00 -9.684632101037e-22 
2.800000000000e+00 1.094457878094e-22 
2.900000000000e+00 -7.373850056654e-24 
3.000000000000e+00 -4.754419472020e-25 
3.100000000000e+00 3.191806369626e-25 
3.200000000000e+00 -8.614001172331e-26 
3.300000000000e+00 1.917180291608e-26 
3.400000000000e+00 -4.022824389170e-27 
3.500000000000e+00 8.438539888871e-28 
3.600000000000e+00 -1.822188330336e-28 
3.700000000000e+00 4.090742598120e-29 
3.800000000000e+00 -9.499235615480e-30 
3.900000000000e+00 2.150651163222e-30 
4.000000000000e+00 0.000000000000e+00 
 ZONE T="TIME=1.080000000000e+05"
0.000000000000e+00 0.000000000000e+00 
1.000000000000e-01 4.729348937771e-12 
2.000000000000e-01 -2.740574045800e-11 
3.000000000000e-01 1.551908041922e-10 
4.000000000000e-01 -8.209387626935e-10 
5.000000000000e-01 3.633550662310e-09 
6.000000000000e-01 -1.166372246580e-08 
7.000000000000e-01 1.439296469557e-08 
8.000000000000e-01 -2.883114815110e-08 
9.000000000000e-01 -1.189614123742e-08 
1.000000000000e+00 1.696064428766e-07 
1.100000000000e+00 2.526405959474e-07 
1.200000000000e+00 1.847822865814e-07 
1.300000000000e+00 8.677771277263e-08 
1.400000000000e+00 2.811808232931e-08 
1.500000000000e+00 6.226219195104e-09 
1.600000000000e+00 8.548536178608e-10 
1.700000000000e+00 4.864029662611e-11 
1.800000000000e+00 -3.298307322804e-12 
1.900000000000e+00 -4.055733259743e-13 
2.000000000000e+00 2.976000739340e-14 
2.100000000000e+00 1.142537265514e-15 
2.200000000000e+00 -3.068012813216e-16 
2.300000000000e+00 2.306843504573e-17 
2.400000000000e+00 -1.659091016782e-19 
2.500000000000e+00 -2.094006800653e-19 
2.600000000000e+00 3.591255447632e-20 
2.700000000000e+00 -3.655526324351e-21 
2.800000000000e+00 1.635698246315e-22 
2.900000000000e+00 3.229642034366e-23 
3.000000000000e+00 -1.190611625160e-23 
3.100000000000e+00 2.566119002775e-24 
3.200000000000e+00 -4.624574863335e-25 
3.300000000000e+00 7.640395409021e-26 
3.400000000000e+00 -1.211999564584e-26 
3.500000000000e+00 1.907600589889e-27 
3.600000000000e+00 -3.052261440441e-28 
3.700000000000e+00 5.043019554650e-29 
3.800000000000e+00 -8.686037120782e-30 
3.900000000000e+00 1.534579806810e-30 
4.000000000000e+00 0.000000000000e+00 
 ZONE T="TIME=1.152000000000e+05"
0.000000000000e+00 0.000000000000e+00 
1.000000000000e-01 1.195767576487e-11 
2.000000000000e-01 -7.013886418421e-11 
3.000000000000e-01 4.014105769747e-10 
4.000000000000e-01 -2.135290191343e-09 
5.000000000000e-01 9.454308652312e-09 
6.000000000000e-01 -3.011559558501e-08 
7.000000000000e-01 3.664862739309e-08 
8.000000000000e-01 -7.223494237925e-08 
9.000000000000e-01 -3.252378390379e-08 
1.000000000000e+00 4.078691382754e-07 
1.100000000000e+00 6.396063964930e-07 
1.200000000000e+00 4.925297822473e-07 
1.300000000000e+00 2.445102718194e-07 
1.400000000000e+00 8.427208472684e-08 
1.500000000000e+00 2.007802822183e-08 
1.600000000000e+00 3.048627333343e-09 
1.700000000000e+00 2.176958709714e-10 
1.800000000000e+00 -7.813943914247e-12 
1.900000000000e+00 -1.800501310528e-12 
2.000000000000e+00 7.575818817761e-14 
2.100000000000e+00 8.940178034219e-15 
2.200000000000e+00 -1.230487973208e-15 
2.300000000000e+00 4.964908806782e-17 
2.400000000000e+00 5.129005933284e-18 
2.500000000000e+00 -1.213944627664e-18 
2.600000000000e+00 1.293857032845e-19 
2.700000000000e+00 -6.039305798349e-21 
2.800000000000e+00 -9.114208793714e-22 
2.900000000000e+00 3.219678425850e-22 
3.000000000000e+00 -6.132907986515e-23 
3.100000000000e+00 9.126513386046e-24 
3.200000000000e+00 -1.093228709008e-24 
3.300000000000e+00 8.615048668855e-26 
3.400000000000e+00 4.727803019286e-27 
3.500000000000e+00 -4.609758404192e-27 
3.600000000000e+00 1.588817407204e-27 
3.700000000000e+00 -4.548504908123e-28 
3.800000000000e+00 1.216073125455e-28 
3.900000000000e+00 -2.973956307400e-29 
4.000000000000e+00 0.000000000000e+00 
 ZONE T="TIME=1.224000000000e+05"
0.000000000000e+00 0.000000000000e+00 
1.000000000000e-01 2.805211388294e-11 
2.000000000000e-01 -1.668823749193e-10 
3.000000000000e-01 9.667737205069e-10 
4.000000000000e-01 -5.175549274078e-09 
5.000000000000e-01 2.292905419098e-08 
6.000000000000e-01 -7.243883643065e-08 
7.000000000000e-01 8.644520645469e-08 
8.000000000000e-01 -1.685865272380e-07 
9.000000000000e-01 -8.357095951749e-08 
1.000000000000e+00 9.210990097236e-07 
1.100000000000e+00 1.518201979359e-06 
1.200000000000e+00 1.228322811128e-06 
1.300000000000e+00 6.430509354154e-07 
1.400000000000e+00 2.350692981289e-07 
1.500000000000e+00 6.001594445832e-08 
1.600000000000e+00 9.994971627298e-09 
1.700000000000e+00 8.563831911418e-10 
1.800000000000e+00 -9.787277558320e-12 
1.900000000000e+00 -6.796762614887e-12 
2.000000000000e+00 1.022115162407e-13 
2.100000000000e+00 4.413930824057e-14 
2.200000000000e+00 -3.815677681635e-15 
2.300000000000e+00 -4.419348232424e-18 
2.400000000000e+00 3.501240630511e-17 
2.500000000000e+00 -4.589052146509e-18 
2.600000000000e+00 2.790898412799e-19 
2.700000000000e+00 1.584159585842e-20 
2.800000000000e+00 -7.686198092795e-21 
2.900000000000e+00 1.403343764336e-21 
3.000000000000e+00 -1.801678705971e-22 
3.100000000000e+00 1.474922637121e-23 
3.200000000000e+00 5.437015915747e-25 
3.300000000000e+00 -6.274958366236e-25 
3.400000000000e+00 2.023113952592e-25 
3.500000000000e+00 -5.313205683929e-26 
3.600000000000e+00 1.314287085934e-26 
3.700000000000e+00 -3.213272259646e-27 
3.800000000000e+00 7.866226363301e-28 
3.900000000000e+00 -1.832519285936e-28 
4.000000000000e+00 0.000000000000e+00 
 ZONE T="TIME=1.296000000000e+05"
0.000000000000e+00 0.000000000000e+00 
1.000000000000e-01 6.131355002364e-11 
2.000000000000e-01 -3.707515713517e-10 