 TITLE = "Profiles along polylines"
 VARIABLES = "DIST" "CONCENTRATION1" 
 ZONE T="TIME=0.000000000000e+00"
0.000000000000e+00 0.000000000000e+00 
1.000000000000e-01 0.000000000000e+00 
2.000000000000e-01 0.000000000000e+00 
3.000000000000e-01 0.000000000000e+00 
4.000000000000e-01 0.000000000000e+00 
5.000000000000e-01 0.000000000000e+00 
6.000000000000e-01 0.000000000000e+00 
7.000000000000e-01 0.000000000000e+00 
8.000000000000e-01 0.000000000000e+00 
9.000000000000e-01 0.000000000000e+00 
1.000000000000e+00 0.000000000000e+00 
1.100000000000e+00 0.000000000000e+00 
1.200000000000e+00 0.000000000000e+00 
1.300000000000e+00 0.000000000000e+00 
1.400000000000e+00 0.000000000000e+00 
1.500000000000e+00 0.000000000000e+00 
1.600000000000e+00 0.000000000000e+00 
1.700000000000e+00 0.000000000000e+00 
1.800000000000e+00 0.000000000000e+00 
1.900000000000e+00 0.000000000000e+00 
2.000000000000e+00 0.000000000000e+00 
2.100000000000e+00 0.000000000000e+00 
2.200000000000e+00 0.000000000000e+00 
2.300000000000e+00 0.000000000000e+00 
2.400000000000e+00 0.000000000000e+00 
2.500000000000e+00 0.000000000000e+00 
2.600000000000e+00 0.000000000000e+00 
2.700000000000e+00 0.000000000000e+00 
2.800000000000e+00 0.000000000000e+00 
2.900000000000e+00 0.000000000000e+00 
3.000000000000e+00 0.000000000000e+00 
3.100000000000e+00 0.000000000000e+00 
3.200000000000e+00 0.000000000000e+00 
3.300000000000e+00 0.000000000000e+00 
3.400000000000e+00 0.000000000000e+00 
3.500000000000e+00 0.000000000000e+00 
3.600000000000e+00 0.000000000000e+00 
3.700000000000e+00 0.000000000000e+00 
3.800000000000e+00 0.000000000000e+00 
3.900000000000e+00 0.000000000000e+00 
4.000000000000e+00 0.000000000000e+00 
 TITLE = "Profiles along polylines"
 VARIABLES = "DIST" "CONCENTRATION1" 
 ZONE T="TIME=7.200000000000e+03"
0.000000000000e+00 0.000000000000e+00 
1.000000000000e-01 6.963802208773e-76 
2.000000000000e-01 -3.634423822808e-75 
3.000000000000e-01 1.435026880732e-74 
4.000000000000e-01 8.349047236698e-74 
5.000000000000e-01 -2.913277924239e-72 
6.000000000000e-01 -1.368768279750e-71 
7.000000000000e-01 -1.855294376165e-71 
8.000000000000e-01 -4.617304501857e-72 
9.000000000000e-01 2.847799838231e-72 
1.000000000000e+00 -1.572831375461e-73 
1.100000000000e+00 4.950263220741e-74 
1.200000000000e+00 -1.394717702929e-74 
1.300000000000e+00 3.815388155097e-75 
1.400000000000e+00 -1.012496920154e-75 
1.500000000000e+00 2.626918310736e-76 
1.600000000000e+00 -6.603906740534e-77 
1.700000000000e+00 1.562595362416e-77 
1.800000000000e+00 4.860975840772e-78 
1.900000000000e+00 -4.053412206807e-77 
2.000000000000e+00 1.813930759205e-76 
2.100000000000e+00 -7.829171049002e-76 
2.200000000000e+00 3.343085075660e-75 
2.300000000000e+00 -1.416817386523e-74 
2.400000000000e+00 5.975611606297e-74 
2.500000000000e+00 -2.514686665187e-73 
2.600000000000e+00 1.058389776912e-72 
2.700000000000e+00 -4.467169764711e-72 
2.800000000000e+00 1.895493516632e-71 
2.900000000000e+00 -8.021461247114e-71 
3.000000000000e+00 3.048907522140e-70 
3.100000000000e+00 4.676866615243e-70 
3.200000000000e+00 -8.433936605218e-68 
3.300000000000e+00 1.706685409767e-67 
3.400000000000e+00 5.813422360265e-67 
3.500000000000e+00 -1.848181182269e-67 
3.600000000000e+00 4.793560015702e-68 
3.700000000000e+00 -1.222082207664e-68 
3.800000000000e+00 3.029089515141e-69 
3.900000000000e+00 -6.964444230313e-70 
4.000000000000e+00 0.000000000000e+00 
 ZONE T="TIME=1.440000000000e+04"
0.000000000000e+00 0.000000000000e+00 
1.000000000000e-01 8.032912825181e-74 
2.000000000000e-01 -4.403210952866e-73 
3.000000000000e-01 2.057585557690e-72 
4.000000000000e-01 3.531130188048e-72 
5.000000000000e-01 -2.730000728770e-70 
6.000000000000e-01 -1.036738994647e-69 
7.000000000000e-01 -1.034026918434e-69 
8.000000000000e-01 2.681906803425e-71 
9.000000000000e-01 1.546263741814e-70 
1.000000000000e+00 -3.630283770778e-71 
1.100000000000e+00 1.034611211952e-71 
1.200000000000e+00 -2.779785925375e-72 
1.300000000000e+00 7.106256279050e-73 
1.400000000000e+00 -1.782005522579e-73 
1.500000000000e+00 4.608368708606e-74 
1.600000000000e+00 -1.878149943485e-74 
1.700000000000e+00 3.625504303819e-74 
1.800000000000e+00 -1.460412887315e-73 
1.900000000000e+00 6.340883126544e-73 
2.000000000000e+00 -2.748692033319e-72 
2.100000000000e+00 1.181046085285e-71 
2.200000000000e+00 -5.030590409322e-71 
2.300000000000e+00 2.127094963690e-70 
2.400000000000e+00 -8.947856436613e-70 
2.500000000000e+00 3.752715650499e-69 
2.600000000000e+00 -1.571763003909e-68 
2.700000000000e+00 6.582076381673e-68 
2.800000000000e+00 -2.752406860050e-67 
2.900000000000e+00 1.126074854034e-66 
3.000000000000e+00 -3.762279527945e-66 
3.100000000000e+00 -1.979407812180e-65 
3.200000000000e+00 1.589203435045e-63 
3.300000000000e+00 -2.545443541420e-63 
3.400000000000e+00 -1.051846658200e-62 
3.500000000000e+00 2.890811235132e-63 
3.600000000000e+00 -7.089939763270e-64 
3.700000000000e+00 1.761006692639e-64 
3.800000000000e+00 -4.308467030478e-65 
3.900000000000e+00 9.849131890702e-66 
4.000000000000e+00 0.000000000000e+00 
 ZONE T="TIME=2.160000000000e+04"
0.000000000000e+00 0.000000000000e+00 
1.000000000000e-01 3.478293112707e-72 
2.000000000000e-01 -1.881311136724e-71 
3.000000000000e-01 8.373942787670e-71 
4.000000000000e-01 2.338650118652e-70 
5.000000000000e-01 -1.222163813151e-68 
6.000000000000e-01 -5.035819296054e-68 
7.000000000000e-01 -5.920478295831e-68 
8.000000000000e-01 -1.158433459873e-68 
9.000000000000e-01 4.462527325532e-69 
1.000000000000e+00 -1.289375094849e-69 
1.100000000000e+00 3.710990851627e-70 
1.200000000000e+00 -9.860583539516e-71 
1.300000000000e+00 2.451752895327e-71 
1.400000000000e+00 -4.499632371787e-72 
1.500000000000e+00 -5.667877967495e-72 
1.600000000000e+00 2.950645367353e-71 
1.700000000000e+00 -1.247211062395e-70 
1.800000000000e+00 5.586074724165e-70 
1.900000000000e+00 -2.488945321390e-69 
2.000000000000e+00 1.100071972682e-68 
2.100000000000e+00 -4.802877172150e-68 
2.200000000000e+00 2.073334880222e-67 
2.300000000000e+00 -8.879044159612e-67 
2.400000000000e+00 3.789094830574e-66 
2.500000000000e+00 -1.618653269388e-65 
2.600000000000e+00 6.957981994575e-65 
2.700000000000e+00 -3.034902209476e-64 
2.800000000000e+00 1.364500000505e-63 
2.900000000000e+00 -6.513549960304e-63 
3.000000000000e+00 3.477064178199e-62 
3.100000000000e+00 -2.211436124917e-61 
3.200000000000e+00 1.132428262025e-60 
3.300000000000e+00 1.182618415585e-59 
3.400000000000e+00 3.319713478099e-60 
3.500000000000e+00 -7.578064085757e-60 
3.600000000000e+00 2.621000991448e-60 
3.700000000000e+00 -7.495928353107e-61 
3.800000000000e+00 1.959923842475e-61 
3.900000000000e+00 -4.610344315912e-62 
4.000000000000e+00 0.000000000000e+00 
 ZONE T="TIME=2.880000000000e+04"
0.000000000000e+00 0.000000000000e+00 
1.000000000000e-01 1.055205064429e-70 
2.000000000000e-01 -5.701169862821e-70 
3.000000000000e-01 2.513782842142e-69 
4.000000000000e-01 7.562809839311e-69 
5.000000000000e-01 -3.661776918063e-67 
6.000000000000e-01 -1.519032834019e-66 
7.000000000000e-01 -1.797881720111e-66 
8.000000000000e-01 -3.582235023860e-67 
9.000000000000e-01 1.392154982936e-67 
1.000000000000e+00 -3.896217575778e-68 
1.100000000000e+00 1.121531533671e-68 
1.200000000000e+00 -2.989818813322e-69 
1.300000000000e+00 7.481404316178e-70 
1.400000000000e+00 -1.486070097207e-70 
1.500000000000e+00 -1.248247103620e-70 
1.600000000000e+00 7.055877774728e-70 
1.700000000000e+00 -2.998987878926e-69 
1.800000000000e+00 1.346791807994e-68 
1.900000000000e+00 -6.021086963692e-68 
2.000000000000e+00 2.670818964444e-67 
2.100000000000e+00 -1.170485155574e-66 
2.200000000000e+00 5.071136093903e-66 
2.300000000000e+00 -2.178437257818e-65 
2.400000000000e+00 9.317188008106e-65 
2.500000000000e+00 -3.984025100653e-64 
2.600000000000e+00 1.710631821576e-63 
2.700000000000e+00 -7.423784806088e-63 
2.800000000000e+00 3.295873249399e-62 
2.900000000000e+00 -1.531590029626e-61 
3.000000000000e+00 7.763740216879e-61 
3.100000000000e+00 -4.489120723325e-60 
3.200000000000e+00 1.533380114714e-59 
3.300000000000e+00 2.909634218822e-58 
3.400000000000e+00 2.717465386971e-58 
3.500000000000e+00 -9.511663252789e-59 
3.600000000000e+00 5.384739423157e-60 
3.700000000000e+00 6.403470963773e-61 
3.800000000000e+00 -3.969896034226e-61 
3.900000000000e+00 1.191207040068e-61 
4.000000000000e+00 0.000000000000e+00 
 ZONE T="TIME=3.600000000000e+04"
0.000000000000e+00 0.000000000000e+00 
1.000000000000e-01 2.461277440726e-69 
2.000000000000e-01 -1.349722594986e-68 
3.000000000000e-01 6.176771154366e-68 
4.000000000000e-01 1.406197171216e-67 
5.000000000000e-01 -8.180516989661e-66 
6.000000000000e-01 -3.196132726242e-65 
7.000000000000e-01 -3.331797510168e-65 
8.000000000000e-01 -4.597694087318e-67 
9.000000000000e-01 5.011182965122e-66 
1.000000000000e+00 -1.163222962524e-66 
1.100000000000e+00 3.306344426265e-67 
1.200000000000e+00 -9.060404326123e-68 
1.300000000000e+00 2.347585780763e-68 
1.400000000000e+00 -5.618637902060e-69 
1.500000000000e+00 5.989534126036e-71 
1.600000000000e+00 5.650984638490e-69 
1.700000000000e+00 -2.535553864729e-68 
1.800000000000e+00 1.156143501666e-67 
1.900000000000e+00 -5.237428692008e-67 
2.000000000000e+00 2.352615397775e-66 
2.100000000000e+00 -1.043236337715e-65 
2.200000000000e+00 4.569290450503e-65 
2.300000000000e+00 -1.982664436557e-64 
2.400000000000e+00 8.559445955048e-64 
2.500000000000e+00 -3.692400440339e-63 
2.600000000000e+00 1.598814753313e-62 
2.700000000000e+00 -6.995109754810e-62 
2.800000000000e+00 3.129800591891e-61 
2.900000000000e+00 -1.463589635288e-60 
3.000000000000e+00 7.403028606270e-60 
3.100000000000e+00 -4.056865474498e-59 
3.200000000000e+00 1.668759305652e-59 
3.300000000000e+00 3.010836680879e-57 
3.400000000000e+00 3.882155440639e-57 
3.500000000000e+00 -7.032037235529e-58 
3.600000000000e+00 4.089700996698e-59 
3.700000000000e+00 -3.034079987216e-61 
3.800000000000e+00 -9.851460237670e-61 
3.900000000000e+00 3.361030209952e-61 
4.000000000000e+00 0.000000000000e+00 
 ZONE T="TIME=4.320000000000e+04"
0.000000000000e+00 0.000000000000e+00 
1.000000000000e-01 4.533837898614e-68 
2.000000000000e-01 -2.577713413612e-67 
3.000000000000e-01 1.288417562247e-66 
4.000000000000e-01 9.129517603860e-67 
5.000000000000e-01 -1.411141225286e-64 
6.000000000000e-01 -4.872092613947e-64 
7.000000000000e-01 -3.967309847526e-64 
8.000000000000e-01 1.281904968957e-64 
9.000000000000e-01 9.427176413814e-65 
1.000000000000e+00 -2.275926179677e-65 
1.100000000000e+00 6.487374124148e-66 
1.200000000000e+00 -1.762003737862e-66 
1.300000000000e+00 4.521343056709e-67 
1.400000000000e+00 -1.115188718843e-67 
1.500000000000e+00 2.095467371996e-68 
1.600000000000e+00 2.350670555314e-68 
1.700000000000e+00 -1.282062317822e-67 
1.800000000000e+00 5.974593614756e-67 
1.900000000000e+00 -2.743527089613e-66 
2.000000000000e+00 1.248301626695e-65 
2.100000000000e+00 -5.603990338253e-65 
2.200000000000e+00 2.482989886323e-64 
2.300000000000e+00 -1.088836823149e-63 
2.400000000000e+00 4.745544599912e-63 
2.500000000000e+00 -2.064372931039e-62 
2.600000000000e+00 9.001572667644e-62 
2.700000000000e+00 -3.957788744364e-61 
2.800000000000e+00 1.772823289077e-60 
2.900000000000e+00 -8.229973391950e-60 
3.000000000000e+00 4.031010383614e-59 
3.100000000000e+00 -1.872857451172e-58 
3.200000000000e+00 -1.516219817524e-57 
3.300000000000e+00 1.691352500173e-56 
3.400000000000e+00 3.221748676477e-56 
3.500000000000e+00 -1.415082085851e-57 
3.600000000000e+00 -2.884110040348e-58 
3.700000000000e+00 1.109822863781e-58 
3.800000000000e+00 -3.220230431779e-59 
3.900000000000e+00 7.946584431026e-60 
4.000000000000e+00 0.000000000000e+00 
 ZONE T="TIME=5.040000000000e+04"
0.000000000000e+00 0.000000000000e+00 
1.000000000000e-01 6.835886146226e-67 
2.000000000000e-01 -4.110602363696e-66 
3.000000000000e-01 2.315586126036e-65 
4.000000000000e-01 -2.691398815805e-65 
5.000000000000e-01 -1.958014919978e-63 
6.000000000000e-01 -5.246777629088e-63 
7.000000000000e-01 -1.450027861417e-63 
8.000000000000e-01 4.673182046364e-63 
9.000000000000e-01 1.350233846064e-63 
1.000000000000e+00 -3.592582844993e-64 
1.100000000000e+00 1.030772406349e-64 
1.200000000000e+00 -2.755740647974e-65 
1.300000000000e+00 6.939889677656e-66 
1.400000000000e+00 -1.707765323648e-66 
1.500000000000e+00 4.133667488279e-67 
1.600000000000e+00 -7.213201300110e-68 
1.700000000000e+00 -1.156534872249e-67 
1.800000000000e+00 7.253067014214e-67 
1.900000000000e+00 -3.714968741479e-66 
2.000000000000e+00 1.847283059139e-65 
2.100000000000e+00 -8.956928505781e-65 
2.200000000000e+00 4.241198765994e-64 
2.300000000000e+00 -1.968266652521e-63 
2.400000000000e+00 8.999899710231e-63 
2.500000000000e+00 -4.075231714493e-62 
2.600000000000e+00 1.834587320703e-61 
2.700000000000e+00 -8.239124080697e-61 
2.800000000000e+00 3.701810475633e-60 
2.900000000000e+00 -1.653169816688e-59 
3.000000000000e+00 6.694900950763e-59 
3.100000000000e+00 6.191464670869e-59 
3.200000000000e+00 -2.066469280759e-56 
3.300000000000e+00 2.517570942580e-56 
3.400000000000e+00 1.554754246648e-55 
3.500000000000e+00 2.030487580403e-56 
3.600000000000e+00 -4.250490205968e-57 
3.700000000000e+00 7.990191341910e-58 
3.800000000000e+00 -1.651026856076e-58 
3.900000000000e+00 3.434567843224e-59 
4.000000000000e+00 0.000000000000e+00 
 ZONE T="TIME=5.760000000000e+04"
0.000000000000e+00 0.000000000000e+00 
1.000000000000e-01 8.826584942685e-66 
2.000000000000e-01 -5.722114361438e-65 
3.000000000000e-01 3.687216978744e-64 
4.000000000000e-01 -1.104396165736e-63 
5.000000000000e-01 -2.274802337987e-62 
6.000000000000e-01 -3.177915008557e-62 
7.000000000000e-01 6.110769813268e-62 
8.000000000000e-01 1.099554428632e-61 
9.000000000000e-01 1.654992215897e-62 
1.000000000000e+00 -4.975906620294e-63 
1.100000000000e+00 1.440819659005e-63 
1.200000000000e+00 -3.778823353867e-64 
1.300000000000e+00 9.290075684160e-65 
1.400000000000e+00 -2.248813305273e-65 
1.500000000000e+00 5.665871524855e-66 
1.600000000000e+00 -2.275620924564e-66 
1.700000000000e+00 4.362602060024e-66 
1.800000000000e+00 -1.778775767555e-65 
1.900000000000e+00 7.784128126556e-65 
2.000000000000e+00 -3.392533186224e-64 
2.100000000000e+00 1.460110345718e-63 
2.200000000000e+00 -6.211121595204e-63 
2.300000000000e+00 2.620804324174e-62 
2.400000000000e+00 -1.102124886389e-61 
2.500000000000e+00 4.641329254655e-61 
2.600000000000e+00 -1.968478873110e-60 
2.700000000000e+00 8.487203571980e-60 
2.800000000000e+00 -3.788874753023e-59 
2.900000000000e+00 1.818702324513e-58 
3.000000000000e+00 -1.019121424627e-57 
3.100000000000e+00 8.112795123623e-57 
3.200000000000e+00 -1.341069135172e-55 
3.300000000000e+00 -5.091581800530e-55 
3.400000000000e+00 7.285375168139e-56 
3.500000000000e+00 3.066069024236e-55 
3.600000000000e+00 -4.070819125921e-56 
3.700000000000e+00 6.083900246264e-57 
3.800000000000e+00 -1.016204081941e-57 
3.900000000000e+00 1.807902515704e-58 
4.000000000000e+00 0.000000000000e+00 
 ZONE T="TIME=6.480000000000e+04"
0.000000000000e+00 0.000000000000e+00 
1.000000000000e-01 1.027715535906e-64 
2.000000000000e-01 -7.271297757210e-64 
3.000000000000e-01 5.326721641152e-63 
4.000000000000e-01 -2.404179788616e-62 
5.000000000000e-01 -2.345810526644e-61 
6.000000000000e-01 1.271191849595e-61 
7.000000000000e-01 1.846461022982e-60 
8.000000000000e-01 2.009155354375e-60 
9.000000000000e-01 1.890573215496e-61 
1.000000000000e+00 -6.403968419139e-62 
1.100000000000e+00 1.873878295518e-62 
1.200000000000e+00 -4.824253697728e-63 
1.300000000000e+00 1.157202674401e-63 
1.400000000000e+00 -2.744179291247e-64 
1.500000000000e+00 6.814699909290e-65 
1.600000000000e+00 -2.752111939341e-65 
1.700000000000e+00 5.476753138638e-65 
1.800000000000e+00 -2.273007058892e-64 
1.900000000000e+00 1.012951303032e-63 
2.000000000000e+00 -4.499592092002e-63 
2.100000000000e+00 1.975485028593e-62 
2.200000000000e+00 -8.574215244469e-62 
2.300000000000e+00 3.688985393772e-61 
2.400000000000e+00 -1.579498782150e-60 
2.500000000000e+00 6.757134692404e-60 
2.600000000000e+00 -2.900373886131e-59 
2.700000000000e+00 1.256768341893e-58 
2.800000000000e+00 -5.558042382683e-58 
2.900000000000e+00 2.556724008262e-57 
3.000000000000e+00 -1.253230373502e-56 
3.100000000000e+00 6.145818816030e-56 
3.200000000000e+00 1.405120455390e-56 
3.300000000000e+00 -6.303958159839e-54 
3.400000000000e+00 -8.278329583247e-54 
3.500000000000e+00 2.804447285859e-54 
3.600000000000e+00 -2.894988831671e-55 
3.700000000000e+00 2.993208398037e-56 
3.800000000000e+00 -2.184324675290e-57 
3.900000000000e+00 -6.974786906855e-59 
4.000000000000e+00 0.000000000000e+00 
 ZONE T="TIME=7.200000000000e+04"
0.000000000000e+00 0.000000000000e+00 
1.000000000000e-01 1.144404398969e-63 
2.000000000000e-01 -8.780062050942e-63 
3.000000000000e-01 7.101293156228e-62 
4.000000000000e-01 -3.934750853690e-61 
5.000000000000e-01 -2.363546872075e-60 
6.000000000000e-01 6.550620224627e-60 
7.000000000000e-01 3.268543879445e-59 
8.000000000000e-01 3.043970734687e-59 
9.000000000000e-01 2.171112801073e-60 
1.000000000000e+00 -7.954376667186e-61 
1.100000000000e+00 2.349515934227e-61 
1.200000000000e+00 -5.971893021065e-62 
1.300000000000e+00 1.406801112483e-62 
1.400000000000e+00 -3.281994128159e-63 
1.500000000000e+00 7.962267675313e-64 
1.600000000000e+00 -2.832960971119e-64 
1.700000000000e+00 4.803407920599e-64 
1.800000000000e+00 -1.932440314748e-63 
1.900000000000e+00 8.596172810779e-63 
2.000000000000e+00 -3.821375023915e-62 
2.100000000000e+00 1.681100281739e-61 
2.200000000000e+00 -7.316833368070e-61 
2.300000000000e+00 3.156535692784e-60 
2.400000000000e+00 -1.353858744716e-59 
2.500000000000e+00 5.790874539643e-59 
2.600000000000e+00 -2.476969777717e-58 
2.700000000000e+00 1.062863886504e-57 
2.800000000000e+00 -4.593007007557e-57 
2.900000000000e+00 1.995739945679e-56 
3.000000000000e+00 -8.183674865116e-56 
3.100000000000e+00 4.198905379587e-56 
3.200000000000e+00 1.352097137026e-53 
3.300000000000e+00 -4.443201928386e-53 
3.400000000000e+00 -1.248263764851e-52 
3.500000000000e+00 2.286609472407e-53 
3.600000000000e+00 -1.881544458468e-54 
3.700000000000e+00 7.552556496565e-56 
3.800000000000e+00 3.058161211025e-56 
3.900000000000e+00 -1.242792133633e-56 
4.000000000000e+00 0.000000000000e+00 
 ZONE T="TIME=7.920000000000e+04"
0.000000000000e+00 0.000000000000e+00 
1.000000000000e-01 1.281769128351e-62 
2.000000000000e-01 -1.033989777991e-61 
3.000000000000e-01 8.830677455714e-61 
4.000000000000e-01 -5.333015590606e-60 
5.000000000000e-01 -2.593463288116e-59 
6.000000000000e-01 1.044571490563e-58 
7.000000000000e-01 4.448948733647e-58 
8.000000000000e-01 3.966429128524e-58 
9.000000000000e-01 2.586838764583e-59 
1.000000000000e+00 -9.657276621835e-60 
1.100000000000e+00 2.870071204941e-60 
1.200000000000e+00 -7.263954070117e-61 
1.300000000000e+00 1.699156879536e-61 
1.400000000000e+00 -3.937128981342e-62 
1.500000000000e+00 9.411501813457e-63 
1.600000000000e+00 -2.957391344320e-63 
1.700000000000e+00 3.978599474015e-63 
1.800000000000e+00 -1.503928982736e-62 
1.900000000000e+00 6.606786882688e-62 
2.000000000000e+00 -2.912736111926e-61 
2.100000000000e+00 1.273228493610e-60 
2.200000000000e+00 -5.514381072885e-60 
2.300000000000e+00 2.368040983302e-59 
2.400000000000e+00 -1.009976817617e-58 
2.500000000000e+00 4.285023045899e-58 
2.600000000000e+00 -1.809301120617e-57 
2.700000000000e+00 7.589788538539e-57 
2.800000000000e+00 -3.135244678808e-56 
2.900000000000e+00 1.218486594677e-55 
3.000000000000e+00 -3.033581640265e-55 
3.100000000000e+00 -4.985544271358e-54 
3.200000000000e+00 2.321844288030e-52 
3.300000000000e+00 -2.131369352702e-52 
3.400000000000e+00 -1.398943873861e-51 
3.500000000000e+00 1.888375353469e-52 
3.600000000000e+00 -1.157107867775e-53 
3.700000000000e+00 -8.698439933385e-55 
3.800000000000e+00 6.861704610628e-55 
3.900000000000e+00 -2.091239589462e-55 
4.000000000000e+00 0.000000000000e+00 
 ZONE T="TIME=8.640000000000e+04"
0.000000000000e+00 0.000000000000e+00 
1.000000000000e-01 1.467564798239e-61 
2.000000000000e-01 -1.194079876886e-60 
3.000000000000e-01 1.030162497051e-59 
4.000000000000e-01 -6.273221214559e-59 
5.000000000000e-01 -3.178597820032e-58 
6.000000000000e-01 1.134632072059e-57 
7.000000000000e-01 5.041854951678e-57 
8.000000000000e-01 4.558056672268e-57 
9.000000000000e-01 3.121656977871e-58 
1.000000000000e+00 -1.136870099251e-58 
1.100000000000e+00 3.386720589420e-59 
1.200000000000e+00 -8.597070956795e-60 
1.300000000000e+00 2.016590904883e-60 
1.400000000000e+00 -4.682249089656e-61 
1.500000000000e+00 1.113848977797e-61 
1.600000000000e+00 -3.196439349339e-62 
1.700000000000e+00 3.339168844944e-62 
1.800000000000e+00 -1.154367129546e-61 
1.900000000000e+00 4.976422406507e-61 
2.000000000000e+00 -2.165495740341e-60 
2.100000000000e+00 9.362332461826e-60 
2.200000000000e+00 -4.017016090563e-59 
2.300000000000e+00 1.709530911755e-58 
2.400000000000e+00 -7.215523495983e-58 
2.500000000000e+00 3.018888597710e-57 
2.600000000000e+00 -1.248171317803e-56 
2.700000000000e+00 5.049700641523e-56 
2.800000000000e+00 -1.934213249735e-55 
2.900000000000e+00 5.979070103823e-55 
3.000000000000e+00 8.240871558672e-55 
3.100000000000e+00 -8.573958522553e-53 
3.200000000000e+00 2.826441817588e-51 
3.300000000000e+00 -3.589653557151e-52 
3.400000000000e+00 -1.397052145285e-50 
3.500000000000e+00 1.527218007459e-51 
3.600000000000e+00 -4.539483033045e-53 
3.700000000000e+00 -2.434141064333e-53 
3.800000000000e+00 1.044978262921e-53 
3.900000000000e+00 -2.881505377306e-54 
4.000000000000e+00 0.000000000000e+00 
 ZONE T="TIME=9.360000000000e+04"
0.000000000000e+00 0.000000000000e+00 
1.000000000000e-01 1.681949128722e-60 
2.000000000000e-01 -1.338314742169e-59 
3.000000000000e-01 1.130191239048e-58 
4.000000000000e-01 -6.593687811494e-58 
5.000000000000e-01 -4.038373667886e-57 
6.000000000000e-01 9.033188665903e-57 
7.000000000000e-01 4.935385560875e-56 
8.000000000000e-01 4.707698534199e-56 
9.000000000000e-01 3.653593869884e-57 
1.000000000000e+00 -1.277952825089e-57 
1.100000000000e+00 3.805099998217e-58 
1.200000000000e+00 -9.726587732623e-59 
1.300000000000e+00 2.300330767280e-59 
1.400000000000e+00 -5.377877963735e-60 
1.500000000000e+00 1.280431088965e-60 
1.600000000000e+00 -3.445559508791e-61 
1.700000000000e+00 2.762457914634e-61 
1.800000000000e+00 -8.427585656150e-61 
1.900000000000e+00 3.547058319369e-60 
2.000000000000e+00 -1.520088785016e-59 
2.100000000000e+00 6.485620897375e-59 
2.200000000000e+00 -2.750498760851e-58 
2.300000000000e+00 1.157071241790e-57 
2.400000000000e+00 -4.816912049981e-57 
2.500000000000e+00 1.977354951846e-56 
2.600000000000e+00 -7.934534636308e-56 
2.700000000000e+00 3.037365034117e-55 
2.800000000000e+00 -1.017611357530e-54 
2.900000000000e+00 1.552462911495e-54 
3.000000000000e+00 3.226581389168e-53 
3.100000000000e+00 -1.020915853712e-51 
3.200000000000e+00 2.891761813884e-50 
3.300000000000e+00 8.002392628505e-51 
3.400000000000e+00 -1.273229243915e-49 
3.500000000000e+00 1.146045109415e-50 
3.600000000000e+00 7.523569313052e-53 
3.700000000000e+00 -3.196074369249e-52 
3.800000000000e+00 1.156967054748e-52 
3.900000000000e+00 -3.050475513727e-53 
4.000000000000e+00 0.000000000000e+00 
 ZONE T="TIME=1.008000000000e+05"
0.000000000000e+00 0.000000000000e+00 
1.000000000000e-01 1.866887298635e-59 
2.000000000000e-01 -1.434357910209e-58 
3.000000000000e-01 1.167287317621e-57 
4.000000000000e-01 -6.322985893221e-57 
5.000000000000e-01 -4.918986308594e-56 
6.000000000000e-01 4.574133972842e-56 
7.000000000000e-01 4.258742829401e-55 
8.000000000000e-01 4.436846104605e-55 
9.000000000000e-01 4.023578988298e-56 
1.000000000000e+00 -1.355015818636e-56 
1.100000000000e+00 4.025875976023e-57 
1.200000000000e+00 -1.037549536521e-57 
1.300000000000e+00 2.477943111713e-58 
1.400000000000e+00 -5.840650987110e-59 
1.500000000000e+00 1.395147300268e-59 
1.600000000000e+00 -3.595395709376e-60 
1.700000000000e+00 2.230936690892e-60 
1.800000000000e+00 -5.724718442911e-60 
1.900000000000e+00 2.330912123301e-59 
2.000000000000e+00 -9.797736079087e-59 
2.100000000000e+00 4.109389922522e-58 
2.200000000000e+00 -1.715869870144e-57 
2.300000000000e+00 7.104112864916e-57 
2.400000000000e+00 -2.899818636922e-56 
2.500000000000e+00 1.156970446484e-55 
2.600000000000e+00 -4.425595369356e-55 
2.700000000000e+00 1.533350739186e-54 
2.800000000000e+00 -3.699288276767e-54 
2.900000000000e+00 -1.234885090001e-53 
3.000000000000e+00 4.331732007002e-52 
3.100000000000e+00 -1.016568735598e-50 
3.200000000000e+00 2.615004151806e-49 
3.300000000000e+00 1.416479559710e-49 
3.400000000000e+00 -1.061082870489e-48 
3.500000000000e+00 7.871769605733e-50 
3.600000000000e+00 3.387161290060e-51 
3.700000000000e+00 -3.082004138007e-51 
3.800000000000e+00 1.029976844976e-51 
3.900000000000e+00 -2.649139918127e-52 
4.000000000000e+00 0.000000000000e+00 
 ZONE T="TIME=1.080000000000e+05"
0.000000000000e+00 0.000000000000e+00 
1.000000000000e-01 1.959056313275e-58 
2.000000000000e-01 -1.453460014407e-57 
3.000000000000e-01 1.135826557145e-56 
4.000000000000e-01 -5.621417947119e-56 
5.000000000000e-01 -5.535673217618e-55 
6.000000000000e-01 -4.001582547376e-56 
7.000000000000e-01 3.277159104116e-54 
8.000000000000e-01 3.864166152984e-54 
9.000000000000e-01 4.115978087754e-55 
1.000000000000e+00 -1.346849305211e-55 
1.100000000000e+00 3.990089276584e-56 
1.200000000000e+00 -1.036431279888e-56 
1.300000000000e+00 2.498350659305e-57 
1.400000000000e+00 -5.933829468953e-58 
1.500000000000e+00 1.422909160367e-58 
1.600000000000e+00 -3.571537678545e-59 
1.700000000000e+00 1.783211915749e-59 
1.800000000000e+00 -3.681070838829e-59 
1.900000000000e+00 1.430091704947e-58 
2.000000000000e+00 -5.856590060130e-58 
2.100000000000e+00 2.398267087690e-57 
2.200000000000e+00 -9.788313239462e-57 
2.300000000000e+00 3.955174708204e-56 
2.400000000000e+00 -1.564709511020e-55 
2.500000000000e+00 5.950558545192e-55 
2.600000000000e+00 -2.081842677628e-54 
2.700000000000e+00 5.707452352578e-54 
2.800000000000e+00 1.081600780361e-54 
2.900000000000e+00 -2.543436597511e-52 
3.000000000000e+00 4.402203346990e-51 
3.100000000000e+00 -8.956789705702e-50 
3.200000000000e+00 2.146833676383e-48 
3.300000000000e+00 1.577629832328e-48 
3.400000000000e+00 -8.177303936642e-48 
3.500000000000e+00 5.015101235539e-49 
3.600000000000e+00 4.094924300611e-50 
3.700000000000e+00 -2.560008321598e-50 
3.800000000000e+00 8.153611371625e-51 
3.900000000000e+00 -2.064025764606e-51 
4.000000000000e+00 0.000000000000e+00 
 ZONE T="TIME=1.152000000000e+05"
0.000000000000e+00 0.000000000000e+00 
1.000000000000e-01 1.921414398603e-57 
2.000000000000e-01 -1.384328477764e-56 
3.000000000000e-01 1.042343311805e-55 
4.000000000000e-01 -4.693177290589e-55 
5.000000000000e-01 -5.704630424537e-54 
6.000000000000e-01 -4.482909137310e-54 
7.000000000000e-01 2.260553040419e-53 
8.000000000000e-01 3.143396049125e-53 
9.000000000000e-01 3.902901042462e-54 
1.000000000000e+00 -1.253392264804e-54 
1.100000000000e+00 3.701812313405e-55 
1.200000000000e+00 -9.681902805344e-56 
1.300000000000e+00 2.352494067492e-56 
1.400000000000e+00 -5.623355916850e-57 
1.500000000000e+00 1.353321594567e-57 
1.600000000000e+00 -3.343840560517e-58 
1.700000000000e+00 1.407132051158e-58 
1.800000000000e+00 -2.250295860388e-58 
1.900000000000e+00 8.169023939978e-58 
2.000000000000e+00 -3.222887302234e-57 
2.100000000000e+00 1.272878644376e-56 
2.200000000000e+00 -5.007979097046e-56 
2.300000000000e+00 1.940791975287e-55 
2.400000000000e+00 -7.245801923158e-55 
2.500000000000e+00 2.494406622243e-54 
2.600000000000e+00 -6.910385988450e-54 
2.700000000000e+00 3.586609609043e-54 
2.800000000000e+00 1.919895015692e-52 
2.900000000000e+00 -2.843268548412e-51 
3.000000000000e+00 3.868489990247e-50 
3.100000000000e+00 -7.220960069209e-49 
3.200000000000e+00 1.637086700381e-47 
3.300000000000e+00 1.450629207027e-47 
3.400000000000e+00 -5.916789932002e-47 
3.500000000000e+00 3.004762888048e-48 
3.600000000000e+00 3.864391342805e-49 
3.700000000000e+00 -1.982339982739e-49 
3.800000000000e+00 6.101968216757e-50 
3.900000000000e+00 -1.526700129514e-50 
4.000000000000e+00 0.000000000000e+00 
 ZONE T="TIME=1.224000000000e+05"
0.000000000000e+00 0.000000000000e+00 
1.000000000000e-01 1.756323034862e-56 
2.000000000000e-01 -1.237352183621e-55 
3.000000000000e-01 9.034699320247e-55 
4.000000000000e-01 -3.717111700895e-54 
5.000000000000e-01 -5.398548844539e-53 
6.000000000000e-01 -6.936219874844e-53 
7.000000000000e-01 1.395436491696e-52 
8.000000000000e-01 2.410070637296e-52 
9.000000000000e-01 3.439942238766e-53 
1.000000000000e+00 -1.093836483310e-53 
1.100000000000e+00 3.220864330068e-54 
1.200000000000e+00 -8.472743334181e-55 
1.300000000000e+00 2.072072782673e-55 
1.400000000000e+00 -4.978428238814e-56 
1.500000000000e+00 1.201649378966e-56 
1.600000000000e+00 -2.937891005624e-57 
1.700000000000e+00 1.074215689195e-57 
1.800000000000e+00 -1.245616870539e-57 
1.900000000000e+00 4.008957446190e-57 
2.000000000000e+00 -1.470373474395e-56 
2.100000000000e+00 5.369515600890e-56 
2.200000000000e+00 -1.931818351552e-55 
2.300000000000e+00 6.656799459038e-55 
2.400000000000e+00 -2.032559942881e-54 
2.500000000000e+00 4.091337141779e-54 
2.600000000000e+00 1.103094978106e-53 
2.700000000000e+00 -2.447344149040e-52 
2.800000000000e+00 2.626476886234e-51 
2.900000000000e+00 -2.659122032595e-50 
3.000000000000e+00 3.132204324919e-49 
3.100000000000e+00 -5.465800219607e-48 
3.200000000000e+00 1.181088735082e-46 
3.300000000000e+00 1.209866569977e-46 
3.400000000000e+00 -4.053208004290e-46 
3.500000000000e+00 1.687584801112e-47 
3.600000000000e+00 3.262328218061e-48 
3.700000000000e+00 -1.465217212101e-48 
3.800000000000e+00 4.384692609257e-49 
3.900000000000e+00 -1.085912357753e-49 
4.000000000000e+00 0.000000000000e+00 
 ZONE T="TIME=1.296000000000e+05"
0.000000000000e+00 0.000000000000e+00 
1.000000000000e-01 1.498630402338e-55 