 TITLE = "Profiles along polylines"
 VARIABLES = "DIST" "CONCENTRATION1" 
 ZONE T="TIME=0.000000000000e+00"
0.000000000000e+00 0.000000000000e+00 
1.000000000000e-01 0.000000000000e+00 
2.000000000000e-01 0.000000000000e+00 
3.000000000000e-01 0.000000000000e+00 
4.000000000000e-01 0.000000000000e+00 
5.000000000000e-01 0.000000000000e+00 
6.000000000000e-01 0.000000000000e+00 
7.000000000000e-01 0.000000000000e+00 
8.000000000000e-01 0.000000000000e+00 
9.000000000000e-01 0.000000000000e+00 
1.000000000000e+00 0.000000000000e+00 
1.100000000000e+00 0.000000000000e+00 
1.200000000000e+00 0.000000000000e+00 
1.300000000000e+00 0.000000000000e+00 
1.400000000000e+00 0.000000000000e+00 
1.500000000000e+00 0.000000000000e+00 
1.600000000000e+00 0.000000000000e+00 
1.700000000000e+00 0.000000000000e+00 
1.800000000000e+00 0.000000000000e+00 
1.900000000000e+00 0.000000000000e+00 
2.000000000000e+00 0.000000000000e+00 
2.100000000000e+00 0.000000000000e+00 
2.200000000000e+00 0.000000000000e+00 
2.300000000000e+00 0.000000000000e+00 
2.400000000000e+00 0.000000000000e+00 
2.500000000000e+00 0.000000000000e+00 
2.600000000000e+00 0.000000000000e+00 
2.700000000000e+00 0.000000000000e+00 
2.800000000000e+00 0.000000000000e+00 
2.900000000000e+00 0.000000000000e+00 
3.000000000000e+00 0.000000000000e+00 
3.100000000000e+00 0.000000000000e+00 
3.200000000000e+00 0.000000000000e+00 
3.300000000000e+00 0.000000000000e+00 
3.400000000000e+00 0.000000000000e+00 
3.500000000000e+00 0.000000000000e+00 
3.600000000000e+00 0.000000000000e+00 
3.700000000000e+00 0.000000000000e+00 
3.800000000000e+00 0.000000000000e+00 
3.900000000000e+00 0.000000000000e+00 
4.000000000000e+00 0.000000000000e+00 
 TITLE = "Profiles along polylines"
 VARIABLES = "DIST" "CONCENTRATION1" 
 ZONE T="TIME=7.200000000000e+03"
0.000000000000e+00 0.000000000000e+00 
1.000000000000e-01 -2.118471194218e-115 
2.000000000000e-01 1.372488370386e-115 
3.000000000000e-01 -7.209035050599e-116 
4.000000000000e-01 2.060917513493e-116 
5.000000000000e-01 3.551587094467e-116 
6.000000000000e-01 -2.137979283246e-115 
7.000000000000e-01 9.080684319853e-115 
8.000000000000e-01 -3.635856622329e-115 
9.000000000000e-01 -1.406597578374e-113 
1.000000000000e+00 1.351545616712e-113 
1.100000000000e+00 -4.813554210994e-114 
1.200000000000e+00 1.023497645869e-114 
1.300000000000e+00 -2.802004879336e-115 
1.400000000000e+00 4.085607618376e-115 
1.500000000000e+00 -1.336040291520e-114 
1.600000000000e+00 5.684929482630e-114 
1.700000000000e+00 -2.444440886049e-113 
1.800000000000e+00 9.938869060610e-113 
1.900000000000e+00 -3.716137526698e-112 
2.000000000000e+00 1.315225737866e-111 
2.100000000000e+00 -4.710387651650e-111 
2.200000000000e+00 1.809553636078e-110 
2.300000000000e+00 -6.234333238507e-110 
2.400000000000e+00 1.400318114444e-109 
2.500000000000e+00 2.704440200653e-109 
2.600000000000e+00 -3.272033086945e-108 
2.700000000000e+00 6.776739316809e-108 
2.800000000000e+00 4.764649339032e-107 
2.900000000000e+00 -2.132355530975e-106 
3.000000000000e+00 7.159106379286e-106 
3.100000000000e+00 1.574431399523e-105 
3.200000000000e+00 6.868812494164e-105 
3.300000000000e+00 8.438763618205e-105 
3.400000000000e+00 7.792789071259e-106 
3.500000000000e+00 -1.756831409845e-106 
3.600000000000e+00 4.166482949702e-107 
3.700000000000e+00 -1.023743746080e-107 
3.800000000000e+00 2.517240095401e-108 
3.900000000000e+00 -5.775484482531e-109 
4.000000000000e+00 0.000000000000e+00 
 ZONE T="TIME=1.440000000000e+04"
0.000000000000e+00 0.000000000000e+00 
1.000000000000e-01 1.008942069498e-113 
2.000000000000e-01 -1.350597187730e-113 
3.000000000000e-01 -9.348206106551e-114 
4.000000000000e-01 6.628618185534e-114 
5.000000000000e-01 -4.123394062169e-113 
6.000000000000e-01 6.119455530870e-113 
7.000000000000e-01 -3.600198879210e-112 
8.000000000000e-01 -7.704680648984e-112 
9.000000000000e-01 1.118357455448e-111 
1.000000000000e+00 -3.902008767473e-112 
1.100000000000e+00 3.109923907260e-112 
1.200000000000e+00 -7.574748429043e-112 
1.300000000000e+00 2.084758798567e-111 
1.400000000000e+00 -5.842472587251e-111 
1.500000000000e+00 2.048120149049e-110 
1.600000000000e+00 -8.769110627109e-110 
1.700000000000e+00 3.788625116799e-109 
1.800000000000e+00 -1.547123991953e-108 
1.900000000000e+00 5.788461758314e-108 
2.000000000000e+00 -2.041512942816e-107 
2.100000000000e+00 7.302897450767e-107 
2.200000000000e+00 -2.810524273039e-106 
2.300000000000e+00 9.677126479585e-106 
2.400000000000e+00 -2.194440719868e-105 
2.500000000000e+00 -3.671954198199e-105 
2.600000000000e+00 4.647740042816e-104 
2.700000000000e+00 -8.025462914707e-104 
2.800000000000e+00 -7.252057006910e-103 
2.900000000000e+00 2.147325390047e-102 
3.000000000000e+00 -8.714248527475e-102 
3.100000000000e+00 -3.486076163241e-101 
3.200000000000e+00 -1.279483800843e-100 
3.300000000000e+00 -1.711540487701e-100 
3.400000000000e+00 -2.741633211521e-101 
3.500000000000e+00 5.672687077880e-102 
3.600000000000e+00 -1.140136487971e-102 
3.700000000000e+00 2.646308338888e-103 
3.800000000000e+00 -6.394821457966e-104 
3.900000000000e+00 1.458757479999e-104 
4.000000000000e+00 0.000000000000e+00 
 ZONE T="TIME=2.160000000000e+04"
0.000000000000e+00 0.000000000000e+00 
1.000000000000e-01 1.655201948542e-111 
2.000000000000e-01 -1.030876463862e-111 
3.000000000000e-01 -1.328084330769e-111 
4.000000000000e-01 9.016035309487e-112 
5.000000000000e-01 -5.031413412656e-111 
6.000000000000e-01 7.778741839845e-111 
7.000000000000e-01 -4.608652714292e-110 
8.000000000000e-01 -1.159519554621e-109 
9.000000000000e-01 -2.151196288148e-110 
1.000000000000e+00 1.741445570320e-109 
1.100000000000e+00 -6.762192226023e-109 
1.200000000000e+00 2.179928312460e-108 
1.300000000000e+00 -6.299973368129e-108 
1.400000000000e+00 1.772459840157e-107 
1.500000000000e+00 -6.224962544297e-107 
1.600000000000e+00 2.626002438167e-106 
1.700000000000e+00 -1.099894940559e-105 
1.800000000000e+00 4.357304380150e-105 
1.900000000000e+00 -1.621543724103e-104 
2.000000000000e+00 5.855117633579e-104 
2.100000000000e+00 -2.112868805146e-103 
2.200000000000e+00 8.027037491457e-103 
2.300000000000e+00 -2.766148875574e-102 
2.400000000000e+00 5.795644290545e-102 
2.500000000000e+00 2.168497398733e-101 
2.600000000000e+00 -2.235822086072e-100 
2.700000000000e+00 7.452186788116e-100 
2.800000000000e+00 2.280205213929e-99 
2.900000000000e+00 -2.969459092458e-98 
3.000000000000e+00 8.787018881981e-98 
3.100000000000e+00 -1.259629484542e-97 
3.200000000000e+00 5.556464948082e-98 
3.300000000000e+00 -2.336939753186e-97 
3.400000000000e+00 -1.527618032242e-97 
3.500000000000e+00 2.934797408095e-98 
3.600000000000e+00 -7.307920390069e-99 
3.700000000000e+00 1.813772392653e-99 
3.800000000000e+00 -4.532450135262e-100 
3.900000000000e+00 1.059190160523e-100 
4.000000000000e+00 0.000000000000e+00 
 ZONE T="TIME=2.880000000000e+04"
0.000000000000e+00 0.000000000000e+00 
1.000000000000e-01 9.985264830041e-110 
2.000000000000e-01 -6.387595163298e-110 
3.000000000000e-01 -8.368614934166e-110 
4.000000000000e-01 5.964341138558e-110 
5.000000000000e-01 -3.394390381104e-109 
6.000000000000e-01 5.375031128398e-109 
7.000000000000e-01 -3.198212119248e-108 
8.000000000000e-01 -9.046878430110e-108 
9.000000000000e-01 -4.118481532693e-108 
1.000000000000e+00 3.957390779648e-108 
1.100000000000e+00 -1.699116419674e-107 
1.200000000000e+00 5.204460397461e-107 
1.300000000000e+00 -1.451790383656e-106 
1.400000000000e+00 4.098395530424e-106 
1.500000000000e+00 -1.431215999063e-105 
1.600000000000e+00 6.096520286214e-105 
1.700000000000e+00 -2.614815159999e-104 
1.800000000000e+00 1.057287807739e-103 
1.900000000000e+00 -3.908404078601e-103 
2.000000000000e+00 1.359588881247e-102 
2.100000000000e+00 -4.925392040243e-102 
2.200000000000e+00 1.984236708833e-101 
2.300000000000e+00 -7.235363282439e-101 
2.400000000000e+00 1.894542970857e-100 
2.500000000000e+00 4.178970453616e-101 
2.600000000000e+00 -2.250866111022e-99 
2.700000000000e+00 -2.344959032899e-100 
2.800000000000e+00 5.486152704303e-98 
2.900000000000e+00 2.005640111052e-97 
3.000000000000e+00 6.341935358481e-97 
3.100000000000e+00 1.606917725060e-95 
3.200000000000e+00 2.586111374769e-95 
3.300000000000e+00 6.149811935485e-95 
3.400000000000e+00 2.102393702903e-95 
3.500000000000e+00 2.917398987051e-96 
3.600000000000e+00 -8.861999344576e-97 
3.700000000000e+00 1.721380280003e-97 
3.800000000000e+00 -3.373115147477e-98 
3.900000000000e+00 6.483516229239e-99 
4.000000000000e+00 0.000000000000e+00 
 ZONE T="TIME=3.600000000000e+04"
0.000000000000e+00 0.000000000000e+00 
1.000000000000e-01 4.840498353862e-108 
2.000000000000e-01 -4.449267675709e-108 
3.000000000000e-01 -2.491697062640e-108 
4.000000000000e-01 1.856120420885e-108 
5.000000000000e-01 -1.170900575884e-107 
6.000000000000e-01 1.668280063645e-107 
7.000000000000e-01 -1.054482854582e-106 
8.000000000000e-01 -3.166514152540e-106 
9.000000000000e-01 -1.733124958559e-106 
1.000000000000e+00 4.892078911805e-107 
1.100000000000e+00 -3.012949873136e-107 
1.200000000000e+00 -1.410869280786e-106 
1.300000000000e+00 7.804071334098e-106 
1.400000000000e+00 -2.278272926887e-105 
1.500000000000e+00 8.313339582257e-105 
1.600000000000e+00 -2.874109863658e-104 
1.700000000000e+00 6.368370045800e-104 
1.800000000000e+00 -4.092586539619e-104 
1.900000000000e+00 1.362027232843e-103 
2.000000000000e+00 -3.394097489886e-102 
2.100000000000e+00 1.335517855343e-101 
2.200000000000e+00 -1.234035556862e-101 
2.300000000000e+00 2.560880540369e-102 
2.400000000000e+00 1.063479128851e-99 
2.500000000000e+00 -2.264858338885e-98 
2.600000000000e+00 1.804660809750e-97 
2.700000000000e+00 -1.050126757623e-96 
2.800000000000e+00 -1.518042617134e-97 
2.900000000000e+00 5.385694987681e-95 
3.000000000000e+00 -4.768690205981e-95 
3.100000000000e+00 7.558802911169e-94 
3.200000000000e+00 1.519664213238e-93 
3.300000000000e+00 2.501455755119e-93 
3.400000000000e+00 1.032440360493e-93 
3.500000000000e+00 -4.282526423256e-95 
3.600000000000e+00 8.032277193417e-96 
3.700000000000e+00 -2.491690685493e-96 
3.800000000000e+00 6.656872733901e-97 
3.900000000000e+00 -1.584436286564e-97 
4.000000000000e+00 0.000000000000e+00 
 ZONE T="TIME=4.320000000000e+04"
0.000000000000e+00 0.000000000000e+00 
1.000000000000e-01 1.890988847149e-106 
2.000000000000e-01 -1.642375576255e-106 
3.000000000000e-01 -6.949133463298e-107 
4.000000000000e-01 3.788427601234e-107 
5.000000000000e-01 -2.879655440575e-106 
6.000000000000e-01 3.312764284337e-106 
7.000000000000e-01 -2.316829407423e-105 
8.000000000000e-01 -7.144430177525e-105 
9.000000000000e-01 -4.229715225676e-105 
1.000000000000e+00 -9.222103484292e-106 
1.100000000000e+00 6.544952862073e-105 
1.200000000000e+00 -2.814851109838e-104 
1.300000000000e+00 9.412295043033e-104 
1.400000000000e+00 -2.690800295020e-103 
1.500000000000e+00 9.508816530965e-103 
1.600000000000e+00 -3.755810120257e-102 
1.700000000000e+00 1.350032499029e-101 
1.800000000000e+00 -4.506625025857e-101 
1.900000000000e+00 1.646947383746e-100 
2.000000000000e+00 -6.885932181915e-100 
2.100000000000e+00 2.546123239076e-99 
2.200000000000e+00 -9.016590366265e-99 
2.300000000000e+00 3.370743381801e-98 
2.400000000000e+00 -5.598583815557e-98 
2.500000000000e+00 -8.663725775668e-97 
2.600000000000e+00 8.125212517634e-96 
2.700000000000e+00 -4.204932854707e-95 
2.800000000000e+00 -3.014000307924e-95 
2.900000000000e+00 2.045000076023e-93 
3.000000000000e+00 -1.094134304555e-93 
3.100000000000e+00 2.516814610315e-92 
3.200000000000e+00 5.701573388600e-92 
3.300000000000e+00 8.766709924207e-92 
3.400000000000e+00 4.067126991954e-92 
3.500000000000e+00 -5.827353298229e-94 
3.600000000000e+00 5.490524245984e-95 
3.700000000000e+00 -2.043900960148e-95 
3.800000000000e+00 5.517615473394e-96 
3.900000000000e+00 -1.294866722070e-96 
4.000000000000e+00 0.000000000000e+00 
 ZONE T="TIME=5.040000000000e+04"
0.000000000000e+00 0.000000000000e+00 
1.000000000000e-01 5.492096751360e-105 
2.000000000000e-01 -4.645445168444e-105 
3.000000000000e-01 -1.793705885368e-105 
4.000000000000e-01 6.239195882997e-106 
5.000000000000e-01 -6.242172236062e-105 
6.000000000000e-01 5.282786051682e-105 
7.000000000000e-01 -4.281737360450e-104 
8.000000000000e-01 -1.304606616183e-103 
9.000000000000e-01 -6.753485608136e-104 
1.000000000000e+00 -3.357287585572e-104 
1.100000000000e+00 1.609005720589e-103 
1.200000000000e+00 -6.946775358289e-103 
1.300000000000e+00 2.330895055729e-102 
1.400000000000e+00 -6.670757653807e-102 
1.500000000000e+00 2.350919200823e-101 
1.600000000000e+00 -9.231139553034e-101 
1.700000000000e+00 3.275006284126e-100 
1.800000000000e+00 -1.075449896143e-99 
1.900000000000e+00 3.914414121480e-99 
2.000000000000e+00 -1.645931337349e-98 
2.100000000000e+00 6.095788665849e-98 
2.200000000000e+00 -2.237158965584e-97 
2.300000000000e+00 8.885901251539e-97 
2.400000000000e+00 -1.766214645205e-96 
2.500000000000e+00 -1.978635753605e-95 
2.600000000000e+00 1.963370047765e-94 
2.700000000000e+00 -1.025598999512e-93 
2.800000000000e+00 -7.910136263598e-94 
2.900000000000e+00 4.948445675470e-92 
3.000000000000e+00 -9.218946889739e-94 
3.100000000000e+00 6.511097579172e-91 
3.200000000000e+00 1.606718748650e-90 
3.300000000000e+00 2.408651780486e-90 
3.400000000000e+00 1.211446474505e-90 
3.500000000000e+00 3.428902707607e-92 
3.600000000000e+00 -5.112893046234e-93 
3.700000000000e+00 7.709699993082e-94 
3.800000000000e+00 -1.520863665601e-94 
3.900000000000e+00 3.140452629295e-95 
4.000000000000e+00 0.000000000000e+00 
 ZONE T="TIME=5.760000000000e+04"
0.000000000000e+00 0.000000000000e+00 
1.000000000000e-01 1.256168611488e-103 
2.000000000000e-01 -1.078759889256e-103 
3.000000000000e-01 -4.299200090209e-104 
4.000000000000e-01 1.021811370117e-104 
5.000000000000e-01 -1.324545629570e-103 
6.000000000000e-01 8.452327094133e-104 
7.000000000000e-01 -7.932863607416e-103 
8.000000000000e-01 -2.318556984430e-102 
9.000000000000e-01 -8.296777492201e-103 
1.000000000000e+00 -3.024541982211e-103 
1.100000000000e+00 1.854938361277e-102 
1.200000000000e+00 -9.781375100762e-102 
1.300000000000e+00 3.491828890049e-101 
1.400000000000e+00 -1.005367391732e-100 
1.500000000000e+00 3.543786865033e-100 
1.600000000000e+00 -1.352662945153e-99 
1.700000000000e+00 4.453587433249e-99 
1.800000000000e+00 -1.316231311803e-98 
1.900000000000e+00 4.756565803931e-98 
2.000000000000e+00 -2.193178432491e-97 
2.100000000000e+00 8.169432457352e-97 
2.200000000000e+00 -3.012230407027e-96 
2.300000000000e+00 1.318209480337e-95 
2.400000000000e+00 -2.803062323951e-95 
2.500000000000e+00 -3.392430426912e-94 
2.600000000000e+00 3.457775158445e-93 
2.700000000000e+00 -1.897746841643e-92 
2.800000000000e+00 -1.280243959756e-92 
2.900000000000e+00 9.225293216010e-91 
3.000000000000e+00 4.904071371371e-91 
3.100000000000e+00 1.359564516388e-89 
3.200000000000e+00 3.570719962378e-89 
3.300000000000e+00 5.294005664598e-89 
3.400000000000e+00 2.812800527691e-89 
3.500000000000e+00 1.735104468324e-90 
3.600000000000e+00 -1.913390781607e-91 
3.700000000000e+00 3.051329498438e-92 
3.800000000000e+00 -6.361470539799e-93 
3.900000000000e+00 1.348117338424e-93 
4.000000000000e+00 0.000000000000e+00 
 ZONE T="TIME=6.480000000000e+04"
0.000000000000e+00 0.000000000000e+00 
1.000000000000e-01 2.350607001890e-102 
2.000000000000e-01 -2.120219700530e-102 
3.000000000000e-01 -9.230835927364e-103 
4.000000000000e-01 1.851617981383e-103 
5.000000000000e-01 -2.729989678374e-102 
6.000000000000e-01 1.560977549289e-102 
7.000000000000e-01 -1.555383436213e-101 
8.000000000000e-01 -4.385056316337e-101 
9.000000000000e-01 -1.113546590012e-101 
1.000000000000e+00 5.485137868342e-102 
1.100000000000e+00 2.282430782930e-102 
1.200000000000e+00 -7.671681328959e-101 
1.300000000000e+00 3.370935708885e-100 
1.400000000000e+00 -9.888474071673e-100 
1.500000000000e+00 3.500512734603e-99 
1.600000000000e+00 -1.234518526920e-98 
1.700000000000e+00 3.135001137479e-98 
1.800000000000e+00 -5.054049477775e-98 
1.900000000000e+00 1.757539058554e-97 
2.000000000000e+00 -1.458808907958e-96 
2.100000000000e+00 5.529730506839e-96 
2.200000000000e+00 -1.956961846637e-95 
2.300000000000e+00 1.162004169765e-94 
2.400000000000e+00 -2.626546608958e-94 
2.500000000000e+00 -4.711471256600e-93 
2.600000000000e+00 4.866619534986e-92 
2.700000000000e+00 -2.876069422808e-91 
2.800000000000e+00 -1.469965078831e-91 
2.900000000000e+00 1.418372071590e-89 
3.000000000000e+00 1.549521806930e-89 
3.100000000000e+00 2.360004645538e-88 
3.200000000000e+00 6.496352486784e-88 
3.300000000000e+00 9.607430233984e-88 
3.400000000000e+00 5.317060734925e-88 
3.500000000000e+00 4.627158818279e-89 
3.600000000000e+00 -4.147587190107e-90 
3.700000000000e+00 6.617441969946e-91 
3.800000000000e+00 -1.408574981313e-91 
3.900000000000e+00 3.011128706216e-92 
4.000000000000e+00 0.000000000000e+00 
 ZONE T="TIME=7.200000000000e+04"
0.000000000000e+00 0.000000000000e+00 
1.000000000000e-01 3.623489237089e-101 
2.000000000000e-01 -3.574887079473e-101 
3.000000000000e-01 -1.725006403976e-101 
4.000000000000e-01 3.440257545085e-102 
5.000000000000e-01 -5.184474445058e-101 
6.000000000000e-01 3.085434234899e-101 
7.000000000000e-01 -3.012543441855e-100 
8.000000000000e-01 -8.409564400112e-100 
9.000000000000e-01 -2.275279465239e-100 
1.000000000000e+00 2.542297120203e-100 
1.100000000000e+00 -3.768059681530e-100 
1.200000000000e+00 1.466405499799e-100 
1.300000000000e+00 1.296620445884e-99 
1.400000000000e+00 -4.285483340667e-99 
1.500000000000e+00 1.564625230164e-98 
1.600000000000e+00 -3.109774746505e-98 
1.700000000000e+00 -1.587017777368e-97 
1.800000000000e+00 1.646621947894e-96 
1.900000000000e+00 -6.095196984387e-96 
2.000000000000e+00 9.755595058492e-96 
2.100000000000e+00 -3.427863981427e-95 
2.200000000000e+00 1.575680008883e-94 
2.300000000000e+00 1.367098793562e-94 
2.400000000000e+00 -5.408338231260e-94 
2.500000000000e+00 -5.477219268100e-92 
2.600000000000e+00 5.687030165755e-91 
2.700000000000e+00 -3.698886851404e-90 
2.800000000000e+00 -1.145110783761e-90 
2.900000000000e+00 1.857744457334e-88 
3.000000000000e+00 3.088821460312e-88 
3.100000000000e+00 3.483918632127e-87 
3.200000000000e+00 9.945517206986e-87 
3.300000000000e+00 1.475204850765e-86 
3.400000000000e+00 8.439537641808e-87 
3.500000000000e+00 9.040189443898e-88 
3.600000000000e+00 -6.766066361279e-89 
3.700000000000e+00 1.084799766703e-89 
3.800000000000e+00 -2.353175791005e-90 
3.900000000000e+00 5.063792924304e-91 
4.000000000000e+00 0.000000000000e+00 
 ZONE T="TIME=7.920000000000e+04"
0.000000000000e+00 0.000000000000e+00 
1.000000000000e-01 4.452790262702e-100 
2.000000000000e-01 -5.170504836509e-100 
3.000000000000e-01 -2.757350137532e-100 
4.000000000000e-01 5.803943948990e-101 
5.000000000000e-01 -8.691424297845e-100 
6.000000000000e-01 5.678887509276e-100 
7.000000000000e-01 -5.308591965771e-99 
8.000000000000e-01 -1.495891746156e-98 
9.000000000000e-01 -5.420628350479e-99 
1.000000000000e+00 5.428427201224e-99 
1.100000000000e+00 -9.413694152480e-99 
1.200000000000e+00 1.640206760742e-98 
1.300000000000e+00 -2.510177446439e-98 
1.400000000000e+00 6.161163735919e-98 
1.500000000000e+00 -2.054999393178e-97 
1.600000000000e+00 1.300676909896e-96 
1.700000000000e+00 -8.975529987991e-96 
1.800000000000e+00 4.759680189502e-95 
1.900000000000e+00 -1.737637830848e-94 
2.000000000000e+00 4.695822941147e-94 
2.100000000000e+00 -1.723534660369e-93 
2.200000000000e+00 7.030056425356e-93 
2.300000000000e+00 -1.635304664446e-92 
2.400000000000e+00 3.270253650420e-92 
2.500000000000e+00 -5.389438542951e-91 
2.600000000000e+00 5.587139379206e-90 
2.700000000000e+00 -4.108163210257e-89 
2.800000000000e+00 -3.074447559065e-90 
2.900000000000e+00 2.108284306364e-87 
3.000000000000e+00 4.749894192916e-87 
3.100000000000e+00 4.445358166121e-86 
3.200000000000e+00 1.306199779094e-85 
3.300000000000e+00 1.949659473491e-85 
3.400000000000e+00 1.148014755459e-85 
3.500000000000e+00 1.423013328108e-86 
3.600000000000e+00 -8.983110671823e-88 
3.700000000000e+00 1.461843426466e-88 
3.800000000000e+00 -3.232114547381e-89 
3.900000000000e+00 6.993550362706e-90 
4.000000000000e+00 0.000000000000e+00 
 ZONE T="TIME=8.640000000000e+04"
0.000000000000e+00 0.000000000000e+00 
1.000000000000e-01 3.766579914273e-99 
2.000000000000e-01 -6.300076363298e-99 
3.000000000000e-01 -3.686964502848e-99 
4.000000000000e-01 8.158506981698e-100 
5.000000000000e-01 -1.245306941192e-98 
6.000000000000e-01 8.980686175254e-99 
7.000000000000e-01 -8.076301260470e-98 
8.000000000000e-01 -2.320158370770e-97 
9.000000000000e-01 -1.133772102334e-97 
1.000000000000e+00 8.223780766519e-98 
1.100000000000e+00 -1.496685508008e-97 
1.200000000000e+00 3.288098019058e-97 
1.300000000000e+00 -6.973625328110e-97 
1.400000000000e+00 1.848302963893e-96 
1.500000000000e+00 -6.325780935343e-96 
1.600000000000e+00 3.137489505930e-95 
1.700000000000e+00 -1.687729920822e-94 
1.800000000000e+00 7.913409784971e-94 
1.900000000000e+00 -2.872656128594e-93 
2.000000000000e+00 8.598832500650e-93 
2.100000000000e+00 -3.183482501924e-92 
2.200000000000e+00 1.282085916000e-91 
2.300000000000e+00 -3.652560736822e-91 
2.400000000000e+00 7.756196748582e-91 
2.500000000000e+00 -4.443681195645e-90 
2.600000000000e+00 4.558297783563e-89 
2.700000000000e+00 -3.961257083846e-88 
2.800000000000e+00 8.246208725143e-89 
2.900000000000e+00 2.087115711253e-86 
3.000000000000e+00 6.033165843606e-86 
3.100000000000e+00 4.952750962098e-85 
3.200000000000e+00 1.489871920830e-84 
3.300000000000e+00 2.241846445971e-84 
3.400000000000e+00 1.355264591161e-84 
3.500000000000e+00 1.882433447544e-85 
3.600000000000e+00 -1.000870932359e-86 
3.700000000000e+00 1.671633179318e-87 
3.800000000000e+00 -3.768999001083e-88 
3.900000000000e+00 8.193399823365e-89 
4.000000000000e+00 0.000000000000e+00 
 ZONE T="TIME=9.360000000000e+04"
0.000000000000e+00 0.000000000000e+00 
1.000000000000e-01 2.497769814814e-99 
2.000000000000e-01 -6.092727220536e-98 
3.000000000000e-01 -3.891353900294e-98 
4.000000000000e-01 8.551567690574e-99 
5.000000000000e-01 -1.453649963723e-97 
6.000000000000e-01 1.154252820797e-97 
7.000000000000e-01 -1.010358591580e-96 
8.000000000000e-01 -2.982493347045e-96 
9.000000000000e-01 -1.934688021066e-96 
1.000000000000e+00 9.379146655744e-97 
1.100000000000e+00 -1.850205140723e-96 
1.200000000000e+00 4.571113333876e-96 
1.300000000000e+00 -1.070039194345e-95 
1.400000000000e+00 2.883195971401e-95 
1.500000000000e+00 -9.913021451402e-95 
1.600000000000e+00 4.622530932917e-94 
1.700000000000e+00 -2.278667083604e-93 
1.800000000000e+00 1.009862287463e-92 
1.900000000000e+00 -3.650586727125e-92 
2.000000000000e+00 1.144121802546e-91 
2.100000000000e+00 -4.258887339352e-91 
2.200000000000e+00 1.711567724575e-90 
2.300000000000e+00 -5.283712237557e-90 
2.400000000000e+00 1.152237776200e-89 
2.500000000000e+00 -2.909730997683e-89 
2.600000000000e+00 2.892386651818e-88 
2.700000000000e+00 -3.285062179016e-87 
2.800000000000e+00 1.934245282883e-87 
2.900000000000e+00 1.793846911694e-85 
3.000000000000e+00 6.530676016353e-85 
3.100000000000e+00 4.834868832134e-84 
3.200000000000e+00 1.483192184773e-83 
3.300000000000e+00 2.251433896623e-83 
3.400000000000e+00 1.395569225562e-83 
3.500000000000e+00 2.135920729739e-84 
3.600000000000e+00 -9.413995475984e-86 
3.700000000000e+00 1.636552059508e-86 
3.800000000000e+00 -3.769128288379e-87 
3.900000000000e+00 8.228696414508e-88 
4.000000000000e+00 0.000000000000e+00 
 ZONE T="TIME=1.008000000000e+05"
0.000000000000e+00 0.000000000000e+00 
1.000000000000e-01 -7.197157767171e-97 
2.000000000000e-01 -3.674079755380e-97 
3.000000000000e-01 -2.570630269220e-97 
4.000000000000e-01 3.956812955914e-98 
5.000000000000e-01 -1.198814105162e-96 
6.000000000000e-01 1.070906203336e-96 
7.000000000000e-01 -9.277697835008e-96 
8.000000000000e-01 -2.869135998106e-95 
9.000000000000e-01 -2.613670917582e-95 
1.000000000000e+00 7.312717617161e-96 
1.100000000000e+00 -1.886038376481e-95 
1.200000000000e+00 5.119393657557e-95 
1.300000000000e+00 -1.263518416760e-94 
1.400000000000e+00 3.429412723775e-94 
1.500000000000e+00 -1.180926583324e-93 
1.600000000000e+00 5.335376343318e-93 
1.700000000000e+00 -2.500815900399e-92 
1.800000000000e+00 1.068137882912e-91 
1.900000000000e+00 -3.846602950724e-91 
2.000000000000e+00 1.241409217979e-90 
2.100000000000e+00 -4.642714813110e-90 
2.200000000000e+00 1.868445883205e-89 
2.300000000000e+00 -6.063546614761e-89 
2.400000000000e+00 1.348974891376e-88 
2.500000000000e+00 -1.187166703178e-88 
2.600000000000e+00 1.023753849487e-87 
2.700000000000e+00 -2.249579112736e-86 
2.800000000000e+00 2.756316170278e-86 
2.900000000000e+00 1.303824912980e-84 
3.000000000000e+00 6.104492381547e-84 
3.100000000000e+00 4.108191240326e-83 
3.200000000000e+00 1.281586579232e-82 
3.300000000000e+00 1.961651966902e-82 
3.400000000000e+00 1.246746478814e-82 
3.500000000000e+00 2.090852521661e-83 
3.600000000000e+00 -7.308238871081e-85 
3.700000000000e+00 1.355030015390e-85 
3.800000000000e+00 -3.203576506885e-86 
3.900000000000e+00 7.026435410903e-87 
4.000000000000e+00 0.000000000000e+00 
 ZONE T="TIME=1.080000000000e+05"
0.000000000000e+00 0.000000000000e+00 
1.000000000000e-01 -1.890041964345e-95 
2.000000000000e-01 1.448274227723e-96 
3.000000000000e-01 9.850160129828e-97 
4.000000000000e-01 -8.944558216508e-97 
5.000000000000e-01 -1.596235031543e-96 
6.000000000000e-01 3.156313393563e-96 
7.000000000000e-01 -3.025244563116e-95 
8.000000000000e-01 -1.196159751614e-94 
9.000000000000e-01 -2.545833073757e-94 
1.000000000000e+00 1.192858517816e-95 
1.100000000000e+00 -1.616393932467e-94 
1.200000000000e+00 4.847098541070e-94 
1.300000000000e+00 -1.244586141729e-93 
1.400000000000e+00 3.394874566694e-93 
1.500000000000e+00 -1.169897787481e-92 
1.600000000000e+00 5.162524972999e-92 
1.700000000000e+00 -2.324578853190e-91 
1.800000000000e+00 9.615751229202e-91 
1.900000000000e+00 -3.449406441425e-90 
2.000000000000e+00 1.141545910403e-89 
2.100000000000e+00 -4.289611744244e-89 
2.200000000000e+00 1.732609320577e-88 
2.300000000000e+00 -5.861778012676e-88 
2.400000000000e+00 1.329967314240e-87 
2.500000000000e+00 3.599140570610e-88 
2.600000000000e+00 -6.526997708835e-87 
2.700000000000e+00 -1.088751174794e-85 
2.800000000000e+00 3.171721075471e-85 
2.900000000000e+00 7.318520084431e-84 
3.000000000000e+00 4.914520681811e-83 
3.100000000000e+00 2.955772507194e-82 
3.200000000000e+00 9.355551951244e-82 
3.300000000000e+00 1.440419023977e-81 
3.400000000000e+00 9.407345094827e-82 
3.500000000000e+00 1.744075030508e-82 
3.600000000000e+00 -4.247304068394e-84 
3.700000000000e+00 8.969739648710e-85 
3.800000000000e+00 -2.210390727215e-85 
3.900000000000e+00 4.881176634210e-86 
4.000000000000e+00 0.000000000000e+00 
 ZONE T="TIME=1.152000000000e+05"
0.000000000000e+00 0.000000000000e+00 
1.000000000000e-01 -3.401746169437e-94 
2.000000000000e-01 9.039447709171e-95 
3.000000000000e-01 7.056103355462e-95 
4.000000000000e-01 -3.241594855102e-95 
5.000000000000e-01 1.882751124788e-94 
6.000000000000e-01 -1.389947137129e-94 
7.000000000000e-01 1.075843860008e-93 
8.000000000000e-01 2.720769033364e-93 
9.000000000000e-01 -9.459276651512e-94 
1.000000000000e+00 -8.358779852027e-94 
1.100000000000e+00 -1.167039885403e-93 
1.200000000000e+00 3.931112425997e-93 
1.300000000000e+00 -1.049892410063e-92 
1.400000000000e+00 2.879367701465e-92 
1.500000000000e+00 -9.929812710479e-92 
1.600000000000e+00 4.276734510513e-91 
1.700000000000e+00 -1.843961904521e-90 
1.800000000000e+00 7.349574400451e-90 
1.900000000000e+00 -2.624553382641e-89 
2.000000000000e+00 8.946921660464e-89 
2.100000000000e+00 -3.381093560943e-88 
2.200000000000e+00 1.374361698293e-87 
2.300000000000e+00 -4.865175213130e-87 
2.400000000000e+00 1.130801341532e-86 
2.500000000000e+00 1.505463434947e-86 
2.600000000000e+00 -1.894026548803e-85 
2.700000000000e+00 -1.718771553073e-86 
2.800000000000e+00 3.211011079073e-84 
2.900000000000e+00 1.895455603900e-83 
3.000000000000e+00 3.309936408412e-82 
3.100000000000e+00 1.642382810073e-81 
3.200000000000e+00 5.258352795075e-81 
3.300000000000e+00 8.066604967160e-81 
3.400000000000e+00 5.466901141600e-81 
3.500000000000e+00 1.175300063062e-81 
3.600000000000e+00 -9.687974343749e-84 
3.700000000000e+00 3.701881568548e-84 
3.800000000000e+00 -1.025028282214e-84 
3.900000000000e+00 2.303943141123e-85 
4.000000000000e+00 0.000000000000e+00 
 ZONE T="TIME=1.224000000000e+05"
0.000000000000e+00 0.000000000000e+00 
1.000000000000e-01 -5.053475657858e-93 
2.000000000000e-01 1.801867248457e-93 
3.000000000000e-01 1.523465638805e-93 
4.000000000000e-01 -6.627499320243e-94 
5.000000000000e-01 4.914218507948e-93 
6.000000000000e-01 -4.124417425373e-93 
7.000000000000e-01 3.261121167714e-92 
8.000000000000e-01 9.125883696385e-92 
9.000000000000e-01 2.835652533163e-92 
1.000000000000e+00 -1.906735419546e-92 
1.100000000000e+00 -7.132841891804e-93 
1.200000000000e+00 2.685547102709e-92 
1.300000000000e+00 -7.552553852362e-92 
1.400000000000e+00 2.089664945119e-91 
1.500000000000e+00 -7.217003183531e-91 
1.600000000000e+00 3.003609740297e-90 
1.700000000000e+00 -1.213688194468e-89 
1.800000000000e+00 4.552535312580e-89 
1.900000000000e+00 -1.614960336374e-88 
2.000000000000e+00 5.789896443803e-88 
2.100000000000e+00 -2.206683438453e-87 
2.200000000000e+00 9.080089428359e-87 
2.300000000000e+00 -3.433298048570e-86 
2.400000000000e+00 8.282551161106e-86 
2.500000000000e+00 2.179401754176e-85 
2.600000000000e+00 -2.627324159172e-84 
2.700000000000e+00 8.220532280477e-84 
2.800000000000e+00 2.993016779027e-83 
2.900000000000e+00 -2.444576018485e-82 
3.000000000000e+00 1.670875645734e-81 
3.100000000000e+00 4.180634430992e-81 
3.200000000000e+00 1.327576324965e-80 
3.300000000000e+00 1.846786571038e-80 
3.400000000000e+00 1.434920892719e-80 
3.500000000000e+00 5.093302619113e-81 
3.600000000000e+00 1.880573331370e-82 
3.700000000000e+00 -1.203886559824e-83 