# vtk DataFile Version 3.0
Unstructured Grid from OpenGeoSys
ASCII
DATASET UNSTRUCTURED_GRID
FIELD TimesAndCycles 2
TIME 1 1 double
1.296000000000e+06
CYLCE 1 1 long
180
POINTS 16441 double
-1.000000000000e+00 0.000000000000e+00 -5.000000000000e+00
-9.750000000000e-01 0.000000000000e+00 -5.000000000000e+00
-9.500000000000e-01 0.000000000000e+00 -5.000000000000e+00
-9.250000000000e-01 0.000000000000e+00 -5.000000000000e+00
-9.000000000000e-01 0.000000000000e+00 -5.000000000000e+00
-8.750000000000e-01 0.000000000000e+00 -5.000000000000e+00
-8.500000000000e-01 0.000000000000e+00 -5.000000000000e+00
-8.250000000000e-01 0.000000000000e+00 -5.000000000000e+00
-8.000000000000e-01 0.000000000000e+00 -5.000000000000e+00
-7.750000000000e-01 0.000000000000e+00 -5.000000000000e+00
-7.500000000000e-01 0.000000000000e+00 -5.000000000000e+00
-7.250000000000e-01 0.000000000000e+00 -5.000000000000e+00
-7.000000000000e-01 0.000000000000e+00 -5.000000000000e+00
-6.750000000000e-01 0.000000000000e+00 -5.000000000000e+00
-6.500000000000e-01 0.000000000000e+00 -5.000000000000e+00
-6.250000000000e-01 0.000000000000e+00 -5.000000000000e+00
-6.000000000000e-01 0.000000000000e+00 -5.000000000000e+00
-5.750000000000e-01 0.000000000000e+00 -5.000000000000e+00
-5.500000000000e-01 0.000000000000e+00 -5.000000000000e+00
-5.250000000000e-01 0.000000000000e+00 -5.000000000000e+00
-5.000000000000e-01 0.000000000000e+00 -5.000000000000e+00
-4.750000000000e-01 0.000000000000e+00 -5.000000000000e+00
-4.500000000000e-01 0.000000000000e+00 -5.000000000000e+00
-4.250000000000e-01 0.000000000000e+00 -5.000000000000e+00
-4.000000000000e-01 0.000000000000e+00 -5.000000000000e+00
-3.750000000000e-01 0.000000000000e+00 -5.000000000000e+00
-3.500000000000e-01 0.000000000000e+00 -5.000000000000e+00
-3.250000000000e-01 0.000000000000e+00 -5.000000000000e+00
-3.000000000000e-01 0.000000000000e+00 -5.000000000000e+00
-2.750000000000e-01 0.000000000000e+00 -5.000000000000e+00
-2.500000000000e-01 0.000000000000e+00 -5.000000000000e+00
-2.250000000000e-01 0.000000000000e+00 -5.000000000000e+00
-2.000000000000e-01 0.000000000000e+00 -5.000000000000e+00
-1.750000000000e-01 0.000000000000e+00 -5.000000000000e+00
-1.500000000000e-01 0.000000000000e+00 -5.000000000000e+00
-1.250000000000e-01 0.000000000000e+00 -5.000000000000e+00
-1.000000000000e-01 0.000000000000e+00 -5.000000000000e+00
-7.500000000000e-02 0.000000000000e+00 -5.000000000000e+00
-5.000000000000e-02 0.000000000000e+00 -5.000000000000e+00
-2.500000000000e-02 0.000000000000e+00 -5.000000000000e+00
0.000000000000e+00 0.000000000000e+00 -5.000000000000e+00
2.500000000000e-02 0.000000000000e+00 -5.000000000000e+00
5.000000000000e-02 0.000000000000e+00 -5.000000000000e+00
7.500000000000e-02 0.000000000000e+00 -5.000000000000e+00
1.000000000000e-01 0.000000000000e+00 -5.000000000000e+00
1.250000000000e-01 0.000000000000e+00 -5.000000000000e+00
1.500000000000e-01 0.000000000000e+00 -5.000000000000e+00
1.750000000000e-01 0.000000000000e+00 -5.000000000000e+00
2.000000000000e-01 0.000000000000e+00 -5.000000000000e+00
2.250000000000e-01 0.000000000000e+00 -5.000000000000e+00
2.500000000000e-01 0.000000000000e+00 -5.000000000000e+00
2.750000000000e-01 0.000000000000e+00 -5.000000000000e+00
3.000000000000e-01 0.000000000000e+00 -5.000000000000e+00
3.250000000000e-01 0.000000000000e+00 -5.000000000000e+00
3.500000000000e-01 0.000000000000e+00 -5.000000000000e+00
3.750000000000e-01 0.000000000000e+00 -5.000000000000e+00
4.000000000000e-01 0.000000000000e+00 -5.000000000000e+00
4.250000000000e-01 0.000000000000e+00 -5.000000000000e+00
4.500000000000e-01 0.000000000000e+00 -5.000000000000e+00
4.750000000000e-01 0.000000000000e+00 -5.000000000000e+00
5.000000000000e-01 0.000000000000e+00 -5.000000000000e+00
5.250000000000e-01 0.000000000000e+00 -5.000000000000e+00
5.500000000000e-01 0.000000000000e+00 -5.000000000000e+00
5.750000000000e-01 0.000000000000e+00 -5.000000000000e+00
6.000000000000e-01 0.000000000000e+00 -5.000000000000e+00
6.250000000000e-01 0.000000000000e+00 -5.000000000000e+00
6.500000000000e-01 0.000000000000e+00 -5.000000000000e+00
6.750000000000e-01 0.000000000000e+00 -5.000000000000e+00
7.000000000000e-01 0.000000000000e+00 -5.000000000000e+00
7.250000000000e-01 0.000000000000e+00 -5.000000000000e+00
7.500000000000e-01 0.000000000000e+00 -5.000000000000e+00
7.750000000000e-01 0.000000000000e+00 -5.000000000000e+00
8.000000000000e-01 0.000000000000e+00 -5.000000000000e+00
8.250000000000e-01 0.000000000000e+00 -5.000000000000e+00
8.500000000000e-01 0.000000000000e+00 -5.000000000000e+00
8.750000000000e-01 0.000000000000e+00 -5.000000000000e+00
9.000000000000e-01 0.000000000000e+00 -5.000000000000e+00
9.250000000000e-01 0.000000000000e+00 -5.000000000000e+00
9.500000000000e-01 0.000000000000e+00 -5.000000000000e+00
9.750000000000e-01 0.000000000000e+00 -5.000000000000e+00
1.000000000000e+00 0.000000000000e+00 -5.000000000000e+00
1.025000000000e+00 0.000000000000e+00 -5.000000000000e+00
1.050000000000e+00 0.000000000000e+00 -5.000000000000e+00
1.075000000000e+00 0.000000000000e+00 -5.000000000000e+00
1.100000000000e+00 0.000000000000e+00 -5.000000000000e+00
1.125000000000e+00 0.000000000000e+00 -5.000000000000e+00
1.150000000000e+00 0.000000000000e+00 -5.000000000000e+00
1.175000000000e+00 0.000000000000e+00 -5.000000000000e+00
1.200000000000e+00 0.000000000000e+00 -5.000000000000e+00
1.225000000000e+00 0.000000000000e+00 -5.000000000000e+00
1.250000000000e+00 0.000000000000e+00 -5.000000000000e+00
1.275000000000e+00 0.000000000000e+00 -5.000000000000e+00
1.300000000000e+00 0.000000000000e+00 -5.000000000000e+00
1.325000000000e+00 0.000000000000e+00 -5.000000000000e+00
1.350000000000e+00 0.000000000000e+00 -5.000000000000e+00
1.375000000000e+00 0.000000000000e+00 -5.000000000000e+00
1.400000000000e+00 0.000000000000e+00 -5.000000000000e+00
1.425000000000e+00 0.000000000000e+00 -5.000000000000e+00
1.450000000000e+00 0.000000000000e+00 -5.000000000000e+00
1.475000000000e+00 0.000000000000e+00 -5.000000000000e+00
1.500000000000e+00 0.000000000000e+00 -5.000000000000e+00
1.525000000000e+00 0.000000000000e+00 -5.000000000000e+00
1.550000000000e+00 0.000000000000e+00 -5.000000000000e+00
1.575000000000e+00 0.000000000000e+00 -5.000000000000e+00
1.600000000000e+00 0.000000000000e+00 -5.000000000000e+00
1.625000000000e+00 0.000000000000e+00 -5.000000000000e+00
1.650000000000e+00 0.000000000000e+00 -5.000000000000e+00
1.675000000000e+00 0.000000000000e+00 -5.000000000000e+00
1.700000000000e+00 0.000000000000e+00 -5.000000000000e+00
1.725000000000e+00 0.000000000000e+00 -5.000000000000e+00
1.750000000000e+00 0.000000000000e+00 -5.000000000000e+00
1.775000000000e+00 0.000000000000e+00 -5.000000000000e+00
1.800000000000e+00 0.000000000000e+00 -5.000000000000e+00
1.825000000000e+00 0.000000000000e+00 -5.000000000000e+00
1.850000000000e+00 0.000000000000e+00 -5.000000000000e+00
1.875000000000e+00 0.000000000000e+00 -5.000000000000e+00
1.900000000000e+00 0.000000000000e+00 -5.000000000000e+00
1.925000000000e+00 0.000000000000e+00 -5.000000000000e+00
1.950000000000e+00 0.000000000000e+00 -5.000000000000e+00
1.975000000000e+00 0.000000000000e+00 -5.000000000000e+00
2.000000000000e+00 0.000000000000e+00 -5.000000000000e+00
2.025000000000e+00 0.000000000000e+00 -5.000000000000e+00
2.050000000000e+00 0.000000000000e+00 -5.000000000000e+00
2.075000000000e+00 0.000000000000e+00 -5.000000000000e+00
2.100000000000e+00 0.000000000000e+00 -5.000000000000e+00
2.125000000000e+00 0.000000000000e+00 -5.000000000000e+00
2.150000000000e+00 0.000000000000e+00 -5.000000000000e+00
2.175000000000e+00 0.000000000000e+00 -5.000000000000e+00
2.200000000000e+00 0.000000000000e+00 -5.000000000000e+00
2.225000000000e+00 0.000000000000e+00 -5.000000000000e+00
2.250000000000e+00 0.000000000000e+00 -5.000000000000e+00
2.275000000000e+00 0.000000000000e+00 -5.000000000000e+00
2.300000000000e+00 0.000000000000e+00 -5.000000000000e+00
2.325000000000e+00 0.000000000000e+00 -5.000000000000e+00
2.350000000000e+00 0.000000000000e+00 -5.000000000000e+00
2.375000000000e+00 0.000000000000e+00 -5.000000000000e+00
2.400000000000e+00 0.000000000000e+00 -5.000000000000e+00
2.425000000000e+00 0.000000000000e+00 -5.000000000000e+00
2.450000000000e+00 0.000000000000e+00 -5.000000000000e+00
2.475000000000e+00 0.000000000000e+00 -5.000000000000e+00
2.500000000000e+00 0.000000000000e+00 -5.000000000000e+00
2.525000000000e+00 0.000000000000e+00 -5.000000000000e+00
2.550000000000e+00 0.000000000000e+00 -5.000000000000e+00
2.575000000000e+00 0.000000000000e+00 -5.000000000000e+00
2.600000000000e+00 0.000000000000e+00 -5.000000000000e+00
2.625000000000e+00 0.000000000000e+00 -5.000000000000e+00
2.650000000000e+00 0.000000000000e+00 -5.000000000000e+00
2.675000000000e+00 0.000000000000e+00 -5.000000000000e+00
2.700000000000e+00 0.000000000000e+00 -5.000000000000e+00
2.725000000000e+00 0.000000000000e+00 -5.000000000000e+00
2.750000000000e+00 0.000000000000e+00 -5.000000000000e+00
2.775000000000e+00 0.000000000000e+00 -5.000000000000e+00
2.800000000000e+00 0.000000000000e+00 -5.000000000000e+00
2.825000000000e+00 0.000000000000e+00 -5.000000000000e+00
2.850000000000e+00 0.000000000000e+00 -5.000000000000e+00
2.875000000000e+00 0.000000000000e+00 -5.000000000000e+00
2.900000000000e+00 0.000000000000e+00 -5.000000000000e+00
2.925000000000e+00 0.000000000000e+00 -5.000000000000e+00
2.950000000000e+00 0.000000000000e+00 -5.000000000000e+00
2.975000000000e+00 0.000000000000e+00 -5.000000000000e+00
3.000000000000e+00 0.000000000000e+00 -5.000000000000e+00
3.025000000000e+00 0.000000000000e+00 -5.000000000000e+00
3.050000000000e+00 0.000000000000e+00 -5.000000000000e+00
3.075000000000e+00 0.000000000000e+00 -5.000000000000e+00
3.100000000000e+00 0.000000000000e+00 -5.000000000000e+00
3.125000000000e+00 0.000000000000e+00 -5.000000000000e+00
3.150000000000e+00 0.000000000000e+00 -5.000000000000e+00
3.175000000000e+00 0.000000000000e+00 -5.000000000000e+00
[...]
POINT_DATA 16441
SCALARS HEAD double 1
LOOKUP_TABLE default
1.000000000000e-02
9.997360055413e-03
9.994611686159e-03
9.991755037737e-03
9.988789846848e-03
9.985715473572e-03
9.982530907117e-03
9.979234751349e-03
9.975825192427e-03
9.972299948370e-03
9.968656198444e-03
9.964890488457e-03
9.960998605986e-03
9.956975416928e-03
9.952814651199e-03
9.948508620185e-03
9.944047840990e-03
9.939420530881e-03
9.934611917313e-03
9.929603279838e-03
9.924370591910e-03
9.918882546847e-03
9.913097599370e-03
9.906959357815e-03
9.900389042122e-03
9.893272303448e-03
9.885434082124e-03
9.876584667657e-03
9.866184040554e-03
9.853014057906e-03
9.833194827316e-03
9.766863130318e-03
9.740386142281e-03
9.722636444952e-03
9.707350531448e-03
9.694509164411e-03
9.679025797347e-03
9.664481959908e-03
9.650986411847e-03
9.638300569503e-03
9.626178620825e-03
9.614337793278e-03
9.602992859329e-03
9.591908592142e-03
9.580977628793e-03
9.570192658570e-03
9.559542099948e-03
9.549002193210e-03
9.538543543756e-03
9.528137015778e-03
9.517756968895e-03
9.507382460490e-03
9.496997252585e-03
9.486589211312e-03
9.476149438535e-03
9.465671314894e-03
9.455149558378e-03
9.444579397691e-03
9.433956008336e-03
9.423274407768e-03
9.412529828573e-03
9.401717294889e-03
9.390823169568e-03
9.379829977138e-03
9.368736575214e-03
9.357524814535e-03
9.346176241491e-03
9.334672671262e-03
9.322995397073e-03
9.311124896221e-03
9.299040988740e-03
9.286723193247e-03
9.274151111567e-03
9.261304768175e-03
9.248164887364e-03
9.234713117444e-03
9.220932220121e-03
9.206806243323e-03
9.192320692356e-03
9.177462709675e-03
9.162221268769e-03
9.146587382999e-03
9.130554325712e-03
9.114117853645e-03
9.097276421959e-03
9.080031376985e-03
9.062387113461e-03
9.044351189152e-03
9.025934404205e-03
9.007150878231e-03
8.988018193555e-03
8.968557698548e-03
8.948794961559e-03
8.928759254806e-03
8.908451928914e-03
8.887956796331e-03
8.867266952603e-03
8.846425288210e-03
8.825474180392e-03
8.804451516641e-03
8.783382983929e-03
8.762320302325e-03
8.741291856876e-03
8.720335418240e-03
8.699486346386e-03
8.678778771434e-03
8.658245193854e-03
8.637916319914e-03
8.617820925367e-03
8.597985716291e-03
8.578435196165e-03
8.559191551236e-03
8.540274561890e-03
8.521701543478e-03
8.503487317272e-03
8.485644210591e-03
8.468182084222e-03
8.451108384839e-03
8.434428219879e-03
8.418144452289e-03
8.402257812491e-03
8.386767024970e-03
8.371668946872e-03
8.356958716072e-03
8.342629906209e-03
8.328674686257e-03
8.315083982319e-03
8.301847639412e-03
8.288954581232e-03
8.276392965975e-03
8.264150336585e-03
8.252213763949e-03
8.240569981833e-03
8.229205512586e-03
8.218106782868e-03
8.207260228910e-03
8.196652391035e-03
8.186269997355e-03
8.176100036779e-03
8.166129821590e-03
8.156347040027e-03
8.146739799374e-03
8.137296660192e-03
8.128006662344e-03
8.118859343543e-03
8.109844751152e-03
8.100953447967e-03
8.092176512712e-03
8.083505535942e-03
8.074932612021e-03
8.066450327807e-03
8.058051748610e-03
8.049730401965e-03
8.041480259702e-03
8.033295718738e-03
8.025171580979e-03
8.017103032663e-03
8.009085623445e-03
8.001115245465e-03
7.993188112611e-03
7.985300740165e-03
7.977449924964e-03
7.969632726208e-03
7.961846446993e-03
7.954088616651e-03
7.946356973951e-03
7.938649451187e-03
7.930964159180e-03
7.923299373207e-03
7.915653519853e-03
7.908025164778e-03
7.900413001381e-03
7.892815840354e-03
7.885232600071e-03
7.877662297822e-03
7.870104041827e-03
7.862557024011e-03
7.855020513510e-03
7.847493850854e-03
7.839976442809e-03
7.832467757829e-03
7.824967322083e-03
7.817474716026e-03
7.809989571463e-03
7.802511569085e-03
7.795040436433e-03
7.787575946249e-03
7.780117915192e-03
7.772666202874e-03
7.765220711180e-03
7.757781383853e-03
7.750348206289e-03
7.742921205531e-03
7.735500450414e-03
7.728086051838e-03
7.720678163134e-03
7.713276980494e-03
7.705882743435e-03
7.698495735271e-03
7.691116283552e-03
7.683744760459e-03
7.676381583114e-03
7.669027213789e-03
7.661682159981e-03
7.654346974326e-03
7.647022254341e-03
7.639708641965e-03
7.632406822872e-03
7.625117525544e-03
7.617841520096e-03
7.610579616816e-03
7.603332664420e-03
7.596101548021e-03
7.588887186774e-03
7.581690531224e-03
7.574512560328e-03
7.567354278168e-03
7.560216710339e-03
7.553100900039e-03
7.546007903848e-03
7.538938787216e-03
7.531894619683e-03
7.524876469822e-03
7.517885399955e-03
7.510922460645e-03
7.503988684985e-03
7.497085082731e-03
7.490212634289e-03
7.483372284593e-03
7.476564936908e-03
7.469791446590e-03
7.463052614832e-03
7.456349182441e-03
7.449681823664e-03
7.443051140113e-03
7.436457654806e-03
7.429901806370e-03
7.423383943418e-03
7.416904319142e-03
7.410463086134e-03
7.404060291462e-03
7.397695872017e-03
7.391369650140e-03
7.385081329546e-03
7.378830491543e-03
7.372616591548e-03
7.366438955900e-03
7.360296778952e-03
7.354189120447e-03
7.348114903135e-03
7.342072910629e-03
7.336061785466e-03
7.330080027342e-03
7.324125991481e-03
7.318197887114e-03
7.312293776009e-03
7.306411571012e-03
7.300549034559e-03
7.294703777087e-03
7.288873255315e-03
7.283054770310e-03
7.277245465304e-03
7.271442323174e-03
7.265642163548e-03
7.259841639440e-03
7.254037233371e-03
7.248225252882e-03
7.242401825373e-03
7.236562892194e-03
7.230704201881e-03
7.224821302477e-03
7.218909532824e-03
7.212964012726e-03
7.206979631881e-03
7.200951037462e-03
7.194872620197e-03
7.188738498850e-03
7.182542502882e-03
7.176278153175e-03
7.169938640584e-03
7.163516802104e-03
7.157005094410e-03
7.150395564461e-03
7.143679816876e-03
7.136848977667e-03
7.129893653936e-03
7.122803889012e-03
7.115569112475e-03
7.108178084371e-03
7.100618832867e-03
7.092878584422e-03
7.084943685363e-03
7.076799513673e-03
7.068430379397e-03
7.059819411948e-03
7.050948432125e-03
7.041797806294e-03
7.032346279572e-03
7.022570784391e-03
7.012446219622e-03
7.001945194718e-03
6.991037732069e-03
6.979690918499e-03
6.967868495423e-03
6.955530373745e-03
6.942632056098e-03
6.929123944023e-03
6.914950501106e-03
6.900049234408e-03
6.884349442148e-03
6.867770664003e-03
6.850220737166e-03
6.831593335810e-03
6.811764814455e-03
6.790590101322e-03
6.767897271504e-03
6.743480245685e-03
6.717088762818e-03
6.688414276467e-03
6.657069580718e-03
6.622558339895e-03
6.584227802680e-03
6.541191739183e-03
6.492197403413e-03
6.435378447111e-03
6.367750960619e-03
6.284047995664e-03
6.173485416755e-03
6.007570145906e-03
5.642539724947e-03
5.281582188224e-03
5.083928710542e-03
4.923105495786e-03
4.797105159322e-03
4.653936318082e-03
4.510816105385e-03
4.369098823747e-03
4.251821924382e-03
4.144385486560e-03
4.040522545220e-03
3.945062247682e-03
3.856327662597e-03
3.773726699487e-03
3.696678546806e-03
3.624655754374e-03
3.557179941410e-03
3.493816877774e-03
3.434172226754e-03
3.377887810976e-03
3.324638244189e-03
3.274127842654e-03
3.226087776011e-03
3.180273438859e-03
3.136462031631e-03
3.094450340463e-03
3.054052704691e-03
3.015099159274e-03
2.977433738410e-03
2.940912926106e-03
2.905404239327e-03
2.870784929474e-03
2.836940788243e-03
2.803765044202e-03
2.771157336665e-03
2.739022753507e-03
2.707270919440e-03
2.675815120756e-03
2.644571451711e-03
2.613457966174e-03
2.582393816025e-03
2.551298354551e-03
2.520090178406e-03
2.488686075256e-03
2.456999835045e-03
2.424940869388e-03
2.392412565600e-03
2.359310274189e-03
2.325518789529e-03
2.290909126354e-03
2.255334304390e-03
2.218623721928e-03
2.180575484982e-03
2.140945716515e-03
2.099433301791e-03
2.055657543169e-03
2.009124426139e-03
1.959173841107e-03
1.904893359460e-03
1.844969384356e-03
1.777411188725e-03
1.698987289767e-03
1.603905920112e-03
1.480017618106e-03
1.293179879450e-03
8.177283486908e-04
5.256245773449e-04
4.167230245636e-04
2.897853047251e-04
1.661490517203e-04
7.695807295541e-05
0.000000000000e+00
1.000000000000e-02
9.997282182426e-03
9.994455787474e-03
9.991520388071e-03
9.988475283779e-03
9.985319472909e-03
9.982051622252e-03
9.978670029706e-03
9.975172576187e-03
9.971556663296e-03
9.967819132669e-03
9.963956161809e-03
9.959963129523e-03
9.955834441604e-03
9.951563303785e-03
9.947141423718e-03
9.942558615818e-03
9.937802270736e-03
9.932856632361e-03
9.927701794933e-03
9.922312282885e-03
9.916654990809e-03
9.910686111071e-03
9.904346403089e-03
9.897553639680e-03
9.890190039398e-03
9.882080356791e-03
9.872951554490e-03
9.862353376783e-03
9.849485817453e-03
9.832747736191e-03
9.807499214764e-03
9.781034442558e-03
9.754804144348e-03
9.728556759961e-03
9.701288603384e-03
9.684483512506e-03
9.670127380356e-03
9.656725490063e-03
9.643862698935e-03
9.631471166042e-03
9.619728706036e-03
9.607876660861e-03
9.596257379259e-03
9.585030045903e-03
9.574118990670e-03
9.563424434992e-03
9.552863940508e-03
9.542376827281e-03
9.531920430166e-03
9.521465547303e-03
9.510992751573e-03
9.500489702493e-03
9.489949238117e-03
9.479367988114e-03
9.468745276439e-03
9.458082102352e-03
9.447379989653e-03
9.436639501915e-03
9.425858347101e-03
9.415029622949e-03
9.404143229204e-03
9.393202953898e-03
9.382211444608e-03
9.371126351011e-03
9.359935582959e-03
9.348624516542e-03
9.337173437744e-03
9.325559371939e-03
9.313757962307e-03
9.301744711569e-03
9.289495680015e-03
9.276987836586e-03
9.264199218006e-03
9.251108996413e-03
9.237697515771e-03
9.223946332104e-03
9.209838277716e-03
9.195357561066e-03
9.180489909041e-03
9.165222755130e-03
9.149545474356e-03
9.133449662834e-03
9.116929455677e-03
9.099981870977e-03
9.082607158948e-03
9.064809123391e-03
9.046595367702e-03
9.027977401510e-03
9.008970532868e-03
8.989593480388e-03
8.969867715699e-03
8.949816888494e-03
8.929468739626e-03
8.908913602072e-03
8.888071859172e-03
8.867067652186e-03
8.845926654731e-03
8.824673945936e-03
8.803347439150e-03
8.782011993846e-03
8.760675834910e-03
8.739395860636e-03
8.718207826091e-03
8.697148404394e-03
8.676252374373e-03
8.655552889484e-03
8.635081284783e-03
8.614866813374e-03
8.594936418667e-03
8.575314562533e-03
8.556023106926e-03
8.537081242248e-03
8.518505456002e-03
8.500309536345e-03
8.482504606068e-03
8.465099183200e-03
8.448099264943e-03
8.431508431938e-03
8.415327970093e-03
8.399557007296e-03
8.384192662458e-03
8.369230204287e-03
8.354663217313e-03
8.340483772647e-03
8.326682601087e-03
8.313249266230e-03
8.300172335428e-03
8.287439546572e-03
8.275037968908e-03
8.262954156307e-03
8.251174291683e-03
8.239684321494e-03
8.228470079542e-03
8.217517399527e-03
8.206812216075e-03
8.196340654168e-03
8.186089107115e-03
8.176044303377e-03
8.166193362692e-03
8.156523842097e-03
8.147023772489e-03
8.137681686480e-03
8.128486638289e-03
8.119428216485e-03
8.110496550350e-03
8.101682310647e-03
8.092976705535e-03
8.084371472327e-03
8.075858865778e-03
8.067431643485e-03
8.059083048986e-03
8.050806793051e-03
8.042597033615e-03
8.034448354766e-03
8.026355745135e-03
8.018314575985e-03
8.010320579279e-03
8.002369825927e-03
7.994458704417e-03
7.986583899967e-03
7.978742374334e-03
7.970931346366e-03
7.963148273388e-03
7.955390833457e-03
7.947656908542e-03
7.939944568644e-03
7.932252056871e-03
7.924577775466e-03
7.916920272785e-03
7.909278231211e-03
7.901650455971e-03
7.894035864855e-03
7.886433478789e-03
7.878842413231e-03
7.871261870374e-03
7.863691132098e-03
7.856129553654e-03
7.848576558030e-03
7.841031630970e-03
7.833494316602e-03
7.825964213643e-03
7.818440972139e-03
7.810924290712e-03
7.803413914258e-03
7.795909632089e-03
7.788411276449e-03
7.780918721403e-03
7.773431882034e-03
7.765950713936e-03
7.758475212954e-03
7.751005415150e-03
7.743541396947e-03
7.736083275432e-03
7.728631208785e-03
7.721185396784e-03
7.713746081385e-03
7.706313547314e-03
7.698888122671e-03
7.691470179488e-03
7.684060134238e-03
7.676658448244e-03
7.669265627977e-03
7.661882225212e-03
7.654508837009e-03
7.647146105504e-03
7.639794717488e-03
7.632455403743e-03
7.625128938126e-03
7.617816136374e-03
7.610517854622e-03
7.603234987619e-03
7.595968466624e-03
7.588719256982e-03
7.581488355371e-03
7.574276786716e-03
7.567085600766e-03
7.559915868349e-03
7.552768677295e-03
7.545645128051e-03
7.538546328991e-03
7.531473391433e-03
7.524427424401e-03
7.517409529124e-03
7.510420793324e-03
7.503462285305e-03
7.496535047870e-03
7.489640092109e-03
7.482778391081e-03
7.475950873431e-03
7.469158416971e-03
7.462401842268e-03
7.455681906269e-03
7.448999296008e-03
7.442354622414e-03
7.435748414273e-03
7.429181112364e-03
7.422653063804e-03
7.416164516619e-03
7.409715614586e-03
7.403306392346e-03
7.396936770812e-03
7.390606552894e-03
7.384315419532e-03
7.378062926053e-03
7.371848498853e-03
7.365671432383e-03
7.359530886448e-03
7.353425883793e-03
7.347355307946e-03
7.341317901323e-03
7.335312263526e-03
7.329336849841e-03
7.323389969859e-03
7.317469786214e-03
7.311574313369e-03
7.305701416408e-03
7.299848809789e-03
7.294014055994e-03
7.288194564027e-03
7.282387587699e-03
7.276590223628e-03
7.270799408913e-03
7.265011918390e-03
7.259224361421e-03
7.253433178135e-03
7.247634635054e-03
7.241824820021e-03
7.235999636355e-03
7.230154796150e-03
7.224285812625e-03
7.218387991438e-03
7.212456420850e-03
7.206485960653e-03
7.200471229713e-03
7.194406592043e-03
7.188286141205e-03
7.182103682958e-03
7.175852715897e-03
7.169526409970e-03
7.163117582576e-03
7.156618672058e-03
7.150021708276e-03
7.143318279935e-03
7.136499498327e-03
7.129555957036e-03
7.122477687135e-03
7.115254107278e-03
7.107873968118e-03
7.100325290139e-03
7.092595294136e-03
7.084670323268e-03
7.076535755351e-03
7.068175904050e-03
7.059573907136e-03
7.050711599760e-03
7.041569370234e-03
7.032125995399e-03
7.022358451646e-03
7.012241697586e-03
7.001748422743e-03
6.990848755199e-03
6.979509920755e-03
6.967695842455e-03
6.955366667918e-03
6.942478207941e-03
6.928981265387e-03
6.914820827174e-03
6.899935083582e-03
6.884254232123e-03
6.867698996346e-03
6.850178787873e-03
6.831589389980e-03
6.811810010717e-03
6.790699486823e-03
6.768091324500e-03
6.743787121980e-03
6.717547698163e-03
6.689080901866e-03
6.658024459145e-03
6.623921370626e-03
6.586183436289e-03
6.544035689479e-03
6.496428443888e-03
6.441892017943e-03
6.378283751476e-03
6.302316167361e-03
6.208586907200e-03
6.087220315221e-03
5.915341494179e-03
5.693393861243e-03
5.451707180798e-03
5.191962181113e-03
4.893233273404e-03
4.679407369912e-03
4.521540397083e-03
4.407033042287e-03
4.274408310573e-03
4.149010023393e-03
4.043203548077e-03
3.944498849192e-03
3.853628373937e-03
3.769595975587e-03
3.691628847839e-03
3.619060940407e-03
3.551310561193e-03
3.487866227524e-03
3.428275927160e-03
3.372138523209e-03
3.319096709515e-03
3.268831152519e-03
3.221055565290e-03
3.175512525264e-03
3.131969892377e-03
3.090217716983e-03
3.050065551290e-03
3.011340096110e-03
2.973883128378e-03
2.937549665079e-03
2.902206327004e-03
2.867729871583e-03
2.834005868542e-03
2.800927495486e-03
2.768394433007e-03
2.736311840721e-03
2.704589396738e-03
2.673140383668e-03
2.641880804070e-03
2.610728507607e-03
2.579602310527e-03
2.548421085410e-03
2.517102795519e-03
2.485563442179e-03
2.453715885614e-03
2.421468488990e-03
2.388723517880e-03
2.355375205951e-03
2.321307363869e-03
2.286390357240e-03
2.250477212297e-03
2.213398490591e-03
2.174955407703e-03
2.134910399392e-03
2.092973892147e-03
2.048785287672e-03
2.001884868939e-03
1.951670962879e-03
1.897332110095e-03
1.837734887067e-03
1.771228012106e-03
1.695276411802e-03
1.605713713260e-03
1.495007129750e-03
1.347266582276e-03
1.114167461932e-03
8.228620398830e-04
4.700970812247e-04
2.906096322644e-04
1.960279587299e-04
8.891508158418e-05
0.000000000000e+00
1.000000000000e-02
9.997066229516e-03
9.994022644373e-03
9.990868214441e-03
9.987601718652e-03
9.984221700138e-03
9.980726422760e-03
9.977113825015e-03
9.973381467713e-03
9.969526471975e-03
9.965545443924e-03
9.961434381883e-03
9.957188561106e-03
9.952802389764e-03
9.948269228226e-03
9.943581161308e-03
9.938728709984e-03
9.933700464947e-03
9.928482618925e-03
9.923058368026e-03
9.917407144684e-03
9.911503637920e-03
9.905316555353e-03
9.898807098709e-03
9.891927192649e-03
9.884617704390e-03
9.876807413523e-03
9.868414833118e-03
9.859358502413e-03
9.849591417041e-03
9.839211467990e-03
9.829005565330e-03
9.817689682317e-03
9.804818739976e-03
9.788786776870e-03
9.764434125900e-03
9.742449095350e-03
9.720971954135e-03
9.699905679650e-03
9.679294576481e-03
9.659246355018e-03
9.639594523818e-03
9.624805470134e-03
9.612866184744e-03
9.601922351601e-03
9.591304998630e-03
9.580742419714e-03
9.570123062693e-03
9.559404215497e-03
9.548573253571e-03
9.537630545716e-03
9.526581980553e-03
9.515435985960e-03
9.504202747007e-03
9.492894577068e-03
9.481526966077e-03
9.470120064727e-03
9.458700365931e-03
9.447302042563e-03
9.435966448110e-03
9.424735641868e-03
9.413628091504e-03
9.402558763404e-03
9.391443304712e-03
9.380414881235e-03
9.369435835432e-03
9.358438650679e-03
9.347357752426e-03
9.336136899932e-03
9.324729384014e-03
9.313096293780e-03
9.301204560876e-03
9.289025290032e-03
9.276532472396e-03
9.263702046982e-03
9.250511245449e-03
9.236938160071e-03
9.222961489187e-03
9.208560430214e-03
9.193714704655e-03
9.178404712213e-03
9.162611822266e-03
9.146318820835e-03
9.129510539324e-03
9.112174696252e-03
9.094302981470e-03
9.075892397422e-03
9.056946832370e-03
9.037478757850e-03
9.017510789256e-03
8.997076582155e-03
8.976220057762e-03
8.954990736286e-03
8.933426375971e-03
8.911322774653e-03
8.889316137422e-03
8.867043222962e-03
8.844596242081e-03
8.822106071679e-03
8.799638809088e-03
8.777132883176e-03
8.754795031750e-03
8.732592350992e-03
8.710572937218e-03
8.688775327340e-03
8.667238684898e-03
8.645999754509e-03
8.625091715483e-03
8.604543779559e-03
8.584381101610e-03
8.564624837834e-03
8.545292281475e-03
8.526397042292e-03
8.507949251323e-03
8.489955779994e-03
8.472420466971e-03
8.455344348661e-03
8.438725890832e-03
8.422561219631e-03
8.406844350650e-03
8.391567414821e-03
8.376720879908e-03
8.362293766303e-03
8.348273855826e-03
8.334647892234e-03
8.321401772209e-03
8.308520725743e-03
8.295989484977e-03
8.283792440770e-03
8.271913786465e-03
8.260337648551e-03
8.249048204134e-03
8.238029785289e-03
8.227266970602e-03
8.216744664307e-03
8.206448163579e-03
8.196363214642e-03
8.186476058433e-03
8.176773466580e-03
8.167242768556e-03
8.157871870794e-03
8.148649268617e-03
8.139564051791e-03
8.130605904460e-03
8.121765100238e-03
8.113032493122e-03
8.104399504908e-03
8.095858109693e-03
8.087400816013e-03
8.079020647116e-03
8.070711119817e-03
8.062466222319e-03
8.054280391366e-03
8.046148489015e-03
8.038065779298e-03
8.030027905001e-03
8.022030864744e-03
8.014070990526e-03
8.006144925866e-03
7.998249604641e-03
7.990382230715e-03
7.982540258411e-03
7.974721373883e-03
7.966923477424e-03
7.959144666718e-03
7.951383221061e-03
7.943637586537e-03
7.935906362160e-03
7.928188286956e-03
7.920482227972e-03
7.912787169191e-03
7.905102201323e-03
7.897426512454e-03
7.889759379515e-03
7.882100160534e-03
7.874448287657e-03
7.866803260882e-03
7.859164642493e-03
7.851532052138e-03
7.843905162531e-03
7.836283695746e-03
7.828667420046e-03
7.821056147241e-03
7.813449730515e-03
7.805848062706e-03
7.798251074988e-03
7.790658735936e-03
7.783071050926e-03
7.775488061847e-03
7.767909847081e-03
7.760336521723e-03
7.752768238003e-03
7.745205185883e-03
7.737647593787e-03
7.730095729432e-03
7.722549900731e-03
7.715010456735e-03
7.707477788568e-03
7.699952330348e-03
7.692434560030e-03
7.684925000169e-03
7.677424218553e-03
7.669932828688e-03
7.662451490092e-03
7.654980908389e-03
7.647521835163e-03
7.640075067551e-03
7.632641447552e-03
7.625221861038e-03
7.617817236435e-03
7.610428543069e-03
7.603056789163e-03
7.595703019466e-03
7.588368312516e-03
7.581053777533e-03
7.573760550928e-03
7.566489792451e-03
7.559242680970e-03
7.552020409891e-03
7.544824182248e-03
7.537655205463e-03
7.530514685806e-03
7.523403822579e-03
7.516323802054e-03
7.509275791192e-03
7.502260931176e-03
7.495280330808e-03
7.488335059784e-03
7.481426141911e-03
7.474554548296e-03
7.467721190547e-03
7.460926914034e-03
7.454172491247e-03
7.447458615296e-03
7.440785893585e-03
7.434154841706e-03
7.427565877577e-03
7.421019315863e-03
7.414515362702e-03
7.408054110763e-03
7.401635534652e-03
7.395259486679e-03
7.388925693000e-03
7.382633750130e-03
7.376383121835e-03
7.370173136380e-03
7.364002984145e-03