VARIABLES = X,Y,Z,PERMEABILITY
ZONE T = DEFAULT, N = 16441, E = 16000, F = FEPOINT, ET = QUADRILATERAL
-1.000000000000e+00 0.000000000000e+00 -5.000000000000e+00 2.342672061432e-04
-9.750000000000e-01 0.000000000000e+00 -5.000000000000e+00 2.363082341924e-04
-9.500000000000e-01 0.000000000000e+00 -5.000000000000e+00 2.405709858232e-04
-9.250000000000e-01 0.000000000000e+00 -5.000000000000e+00 2.452029218373e-04
-9.000000000000e-01 0.000000000000e+00 -5.000000000000e+00 2.502204991556e-04
-8.750000000000e-01 0.000000000000e+00 -5.000000000000e+00 2.556419791046e-04
-8.500000000000e-01 0.000000000000e+00 -5.000000000000e+00 2.614875636166e-04
-8.250000000000e-01 0.000000000000e+00 -5.000000000000e+00 2.677795494433e-04
-8.000000000000e-01 0.000000000000e+00 -5.000000000000e+00 2.745425024495e-04
-7.750000000000e-01 0.000000000000e+00 -5.000000000000e+00 2.818034543885e-04
-7.500000000000e-01 0.000000000000e+00 -5.000000000000e+00 2.895921249583e-04
-7.250000000000e-01 0.000000000000e+00 -5.000000000000e+00 2.979411723950e-04
-7.000000000000e-01 0.000000000000e+00 -5.000000000000e+00 3.068864764087e-04
-6.750000000000e-01 0.000000000000e+00 -5.000000000000e+00 3.164674579054e-04
-6.500000000000e-01 0.000000000000e+00 -5.000000000000e+00 3.267274407063e-04
-6.250000000000e-01 0.000000000000e+00 -5.000000000000e+00 3.377140613880e-04
-6.000000000000e-01 0.000000000000e+00 -5.000000000000e+00 3.494797344575e-04
-5.750000000000e-01 0.000000000000e+00 -5.000000000000e+00 3.620821813967e-04
-5.500000000000e-01 0.000000000000e+00 -5.000000000000e+00 3.755850336989e-04
-5.250000000000e-01 0.000000000000e+00 -5.000000000000e+00 3.900585219578e-04
-5.000000000000e-01 0.000000000000e+00 -5.000000000000e+00 4.055802654271e-04
-4.750000000000e-01 0.000000000000e+00 -5.000000000000e+00 4.222361793702e-04
-4.500000000000e-01 0.000000000000e+00 -5.000000000000e+00 4.401215210895e-04
-4.250000000000e-01 0.000000000000e+00 -5.000000000000e+00 4.593420999574e-04
-4.000000000000e-01 0.000000000000e+00 -5.000000000000e+00 4.800156822967e-04
-3.750000000000e-01 0.000000000000e+00 -5.000000000000e+00 5.022736288898e-04
-3.500000000000e-01 0.000000000000e+00 -5.000000000000e+00 5.262628116460e-04
-3.250000000000e-01 0.000000000000e+00 -5.000000000000e+00 5.521478670752e-04
-3.000000000000e-01 0.000000000000e+00 -5.000000000000e+00 5.801138584458e-04
-2.750000000000e-01 0.000000000000e+00 -5.000000000000e+00 6.103694368395e-04
-2.500000000000e-01 0.000000000000e+00 -5.000000000000e+00 6.431506151458e-04
-2.250000000000e-01 0.000000000000e+00 -5.000000000000e+00 6.787253002441e-04
-2.000000000000e-01 0.000000000000e+00 -5.000000000000e+00 7.173987698699e-04
-1.750000000000e-01 0.000000000000e+00 -5.000000000000e+00 7.595203356887e-04
-1.500000000000e-01 0.000000000000e+00 -5.000000000000e+00 8.054915082617e-04
-1.250000000000e-01 0.000000000000e+00 -5.000000000000e+00 8.557760806289e-04
-1.000000000000e-01 0.000000000000e+00 -5.000000000000e+00 9.109126865111e-04
-7.500000000000e-02 0.000000000000e+00 -5.000000000000e+00 9.715305835669e-04
-5.000000000000e-02 0.000000000000e+00 -5.000000000000e+00 1.038369687303e-03
-2.500000000000e-02 0.000000000000e+00 -5.000000000000e+00 1.112306276508e-03
0.000000000000e+00 0.000000000000e+00 -5.000000000000e+00 1.194386368160e-03
2.500000000000e-02 0.000000000000e+00 -5.000000000000e+00 1.285869617487e-03
5.000000000000e-02 0.000000000000e+00 -5.000000000000e+00 1.388287898883e-03
7.500000000000e-02 0.000000000000e+00 -5.000000000000e+00 1.503524737244e-03
1.000000000000e-01 0.000000000000e+00 -5.000000000000e+00 1.633924955242e-03
1.250000000000e-01 0.000000000000e+00 -5.000000000000e+00 1.782449113616e-03
1.500000000000e-01 0.000000000000e+00 -5.000000000000e+00 1.952896084648e-03
1.750000000000e-01 0.000000000000e+00 -5.000000000000e+00 2.150232357563e-03
2.000000000000e-01 0.000000000000e+00 -5.000000000000e+00 2.381094334029e-03
2.250000000000e-01 0.000000000000e+00 -5.000000000000e+00 2.654582414694e-03
2.500000000000e-01 0.000000000000e+00 -5.000000000000e+00 2.983571170702e-03
2.750000000000e-01 0.000000000000e+00 -5.000000000000e+00 3.386986277022e-03
3.000000000000e-01 0.000000000000e+00 -5.000000000000e+00 3.894026133467e-03
3.250000000000e-01 0.000000000000e+00 -5.000000000000e+00 4.552668190341e-03
3.500000000000e-01 0.000000000000e+00 -5.000000000000e+00 5.448834144743e-03
3.750000000000e-01 0.000000000000e+00 -5.000000000000e+00 6.757056185569e-03
4.000000000000e-01 0.000000000000e+00 -5.000000000000e+00 8.913286141021e-03
4.250000000000e-01 0.000000000000e+00 -5.000000000000e+00 1.359746031022e-02
4.500000000000e-01 0.000000000000e+00 -5.000000000000e+00 2.923825192536e-02
4.750000000000e-01 0.000000000000e+00 -5.000000000000e+00 2.776184882167e-02
5.000000000000e-01 0.000000000000e+00 -5.000000000000e+00 1.159313578331e-02
5.250000000000e-01 0.000000000000e+00 -5.000000000000e+00 8.099457883534e-03
5.500000000000e-01 0.000000000000e+00 -5.000000000000e+00 6.287738282459e-03
5.750000000000e-01 0.000000000000e+00 -5.000000000000e+00 5.136336717071e-03
6.000000000000e-01 0.000000000000e+00 -5.000000000000e+00 4.327278981306e-03
6.250000000000e-01 0.000000000000e+00 -5.000000000000e+00 3.722973936987e-03
6.500000000000e-01 0.000000000000e+00 -5.000000000000e+00 3.252555499393e-03
6.750000000000e-01 0.000000000000e+00 -5.000000000000e+00 2.875245650325e-03
7.000000000000e-01 0.000000000000e+00 -5.000000000000e+00 2.565684809718e-03
7.250000000000e-01 0.000000000000e+00 -5.000000000000e+00 2.307163676318e-03
7.500000000000e-01 0.000000000000e+00 -5.000000000000e+00 2.088167586299e-03
7.750000000000e-01 0.000000000000e+00 -5.000000000000e+00 1.900471636170e-03
8.000000000000e-01 0.000000000000e+00 -5.000000000000e+00 1.738025431436e-03
8.250000000000e-01 0.000000000000e+00 -5.000000000000e+00 1.596267512016e-03
8.500000000000e-01 0.000000000000e+00 -5.000000000000e+00 1.471686558950e-03
8.750000000000e-01 0.000000000000e+00 -5.000000000000e+00 1.361530840301e-03
9.000000000000e-01 0.000000000000e+00 -5.000000000000e+00 1.263610143660e-03
9.250000000000e-01 0.000000000000e+00 -5.000000000000e+00 1.176157317331e-03
9.500000000000e-01 0.000000000000e+00 -5.000000000000e+00 1.097729328573e-03
9.750000000000e-01 0.000000000000e+00 -5.000000000000e+00 1.027135174645e-03
1.000000000000e+00 0.000000000000e+00 -5.000000000000e+00 9.633824438685e-04
1.025000000000e+00 0.000000000000e+00 -5.000000000000e+00 9.056370840871e-04
1.050000000000e+00 0.000000000000e+00 -5.000000000000e+00 8.531926888030e-04
1.075000000000e+00 0.000000000000e+00 -5.000000000000e+00 8.054467508535e-04
1.100000000000e+00 0.000000000000e+00 -5.000000000000e+00 7.618820900956e-04
1.125000000000e+00 0.000000000000e+00 -5.000000000000e+00 7.220521735635e-04
1.150000000000e+00 0.000000000000e+00 -5.000000000000e+00 6.855693990766e-04
1.175000000000e+00 0.000000000000e+00 -5.000000000000e+00 6.520956598567e-04
1.200000000000e+00 0.000000000000e+00 -5.000000000000e+00 6.213346827067e-04
1.225000000000e+00 0.000000000000e+00 -5.000000000000e+00 5.930257581690e-04
1.250000000000e+00 0.000000000000e+00 -5.000000000000e+00 5.669385727254e-04
1.275000000000e+00 0.000000000000e+00 -5.000000000000e+00 5.428689206014e-04
1.300000000000e+00 0.000000000000e+00 -5.000000000000e+00 5.206351229848e-04
1.325000000000e+00 0.000000000000e+00 -5.000000000000e+00 5.000750202373e-04
1.350000000000e+00 0.000000000000e+00 -5.000000000000e+00 4.810434313442e-04
1.375000000000e+00 0.000000000000e+00 -5.000000000000e+00 4.634099967813e-04
1.400000000000e+00 0.000000000000e+00 -5.000000000000e+00 4.470573379061e-04
1.425000000000e+00 0.000000000000e+00 -5.000000000000e+00 4.318794791461e-04
1.450000000000e+00 0.000000000000e+00 -5.000000000000e+00 4.177804895639e-04
1.475000000000e+00 0.000000000000e+00 -5.000000000000e+00 4.046733085145e-04
1.500000000000e+00 0.000000000000e+00 -5.000000000000e+00 3.924787265653e-04
1.525000000000e+00 0.000000000000e+00 -5.000000000000e+00 3.811244980046e-04
1.550000000000e+00 0.000000000000e+00 -5.000000000000e+00 3.705445654123e-04
1.575000000000e+00 0.000000000000e+00 -5.000000000000e+00 3.606783801155e-04
1.600000000000e+00 0.000000000000e+00 -5.000000000000e+00 3.514703050719e-04
1.625000000000e+00 0.000000000000e+00 -5.000000000000e+00 3.428690889497e-04
1.650000000000e+00 0.000000000000e+00 -5.000000000000e+00 3.348274019963e-04
1.675000000000e+00 0.000000000000e+00 -5.000000000000e+00 3.273014257910e-04
1.700000000000e+00 0.000000000000e+00 -5.000000000000e+00 3.202504902252e-04
1.725000000000e+00 0.000000000000e+00 -5.000000000000e+00 3.136367520840e-04
1.750000000000e+00 0.000000000000e+00 -5.000000000000e+00 3.074249104664e-04
1.775000000000e+00 0.000000000000e+00 -5.000000000000e+00 3.015819550004e-04
1.800000000000e+00 0.000000000000e+00 -5.000000000000e+00 2.960769434085e-04
1.825000000000e+00 0.000000000000e+00 -5.000000000000e+00 2.908808054805e-04
1.850000000000e+00 0.000000000000e+00 -5.000000000000e+00 2.859661709285e-04
1.875000000000e+00 0.000000000000e+00 -5.000000000000e+00 2.813072189442e-04
1.900000000000e+00 0.000000000000e+00 -5.000000000000e+00 2.768795475632e-04
1.925000000000e+00 0.000000000000e+00 -5.000000000000e+00 2.726600611725e-04
1.950000000000e+00 0.000000000000e+00 -5.000000000000e+00 2.686268746829e-04
1.975000000000e+00 0.000000000000e+00 -5.000000000000e+00 2.647592330309e-04
2.000000000000e+00 0.000000000000e+00 -5.000000000000e+00 2.610374447853e-04
2.025000000000e+00 0.000000000000e+00 -5.000000000000e+00 2.574428287085e-04
2.050000000000e+00 0.000000000000e+00 -5.000000000000e+00 2.539576721765e-04
2.075000000000e+00 0.000000000000e+00 -5.000000000000e+00 2.505652003833e-04
2.100000000000e+00 0.000000000000e+00 -5.000000000000e+00 2.472495552685e-04
2.125000000000e+00 0.000000000000e+00 -5.000000000000e+00 2.439957830927e-04
2.150000000000e+00 0.000000000000e+00 -5.000000000000e+00 2.407898295710e-04
2.175000000000e+00 0.000000000000e+00 -5.000000000000e+00 2.376185414425e-04
2.200000000000e+00 0.000000000000e+00 -5.000000000000e+00 2.344696733260e-04
2.225000000000e+00 0.000000000000e+00 -5.000000000000e+00 2.313318986779e-04
2.250000000000e+00 0.000000000000e+00 -5.000000000000e+00 2.281948236471e-04
2.275000000000e+00 0.000000000000e+00 -5.000000000000e+00 2.250490026000e-04
2.300000000000e+00 0.000000000000e+00 -5.000000000000e+00 2.218859540878e-04
2.325000000000e+00 0.000000000000e+00 -5.000000000000e+00 2.186981760379e-04
2.350000000000e+00 0.000000000000e+00 -5.000000000000e+00 2.154791589833e-04
2.375000000000e+00 0.000000000000e+00 -5.000000000000e+00 2.122233961960e-04
2.400000000000e+00 0.000000000000e+00 -5.000000000000e+00 2.089263896621e-04
2.425000000000e+00 0.000000000000e+00 -5.000000000000e+00 2.055846509388e-04
2.450000000000e+00 0.000000000000e+00 -5.000000000000e+00 2.021956960505e-04
2.475000000000e+00 0.000000000000e+00 -5.000000000000e+00 1.987580337243e-04
2.500000000000e+00 0.000000000000e+00 -5.000000000000e+00 1.952711464256e-04
2.525000000000e+00 0.000000000000e+00 -5.000000000000e+00 1.917354638333e-04
2.550000000000e+00 0.000000000000e+00 -5.000000000000e+00 1.881523285764e-04
2.575000000000e+00 0.000000000000e+00 -5.000000000000e+00 1.845239542548e-04
2.600000000000e+00 0.000000000000e+00 -5.000000000000e+00 1.808533759539e-04
2.625000000000e+00 0.000000000000e+00 -5.000000000000e+00 1.771443936608e-04
2.650000000000e+00 0.000000000000e+00 -5.000000000000e+00 1.734015091624e-04
2.675000000000e+00 0.000000000000e+00 -5.000000000000e+00 1.696298571751e-04
2.700000000000e+00 0.000000000000e+00 -5.000000000000e+00 1.658351315952e-04
2.725000000000e+00 0.000000000000e+00 -5.000000000000e+00 1.620235078793e-04
2.750000000000e+00 0.000000000000e+00 -5.000000000000e+00 1.582015626547e-04
2.775000000000e+00 0.000000000000e+00 -5.000000000000e+00 1.543761917164e-04
2.800000000000e+00 0.000000000000e+00 -5.000000000000e+00 1.505545276001e-04
2.825000000000e+00 0.000000000000e+00 -5.000000000000e+00 1.467438579128e-04
2.850000000000e+00 0.000000000000e+00 -5.000000000000e+00 1.429515455721e-04
2.875000000000e+00 0.000000000000e+00 -5.000000000000e+00 1.391849520417e-04
2.900000000000e+00 0.000000000000e+00 -5.000000000000e+00 1.354513645636e-04
2.925000000000e+00 0.000000000000e+00 -5.000000000000e+00 1.317579282806e-04
2.950000000000e+00 0.000000000000e+00 -5.000000000000e+00 1.281115840152e-04
2.975000000000e+00 0.000000000000e+00 -5.000000000000e+00 1.245190123344e-04
3.000000000000e+00 0.000000000000e+00 -5.000000000000e+00 1.209865843847e-04
3.025000000000e+00 0.000000000000e+00 -5.000000000000e+00 1.175203198332e-04
3.050000000000e+00 0.000000000000e+00 -5.000000000000e+00 1.141258521025e-04
3.075000000000e+00 0.000000000000e+00 -5.000000000000e+00 1.108084009503e-04
3.100000000000e+00 0.000000000000e+00 -5.000000000000e+00 1.075727523075e-04
3.125000000000e+00 0.000000000000e+00 -5.000000000000e+00 1.044232451727e-04
3.150000000000e+00 0.000000000000e+00 -5.000000000000e+00 1.013637652556e-04
3.175000000000e+00 0.000000000000e+00 -5.000000000000e+00 9.839774496985e-05
3.200000000000e+00 0.000000000000e+00 -5.000000000000e+00 9.552816930651e-05
3.225000000000e+00 0.000000000000e+00 -5.000000000000e+00 9.275758706290e-05
3.250000000000e+00 0.000000000000e+00 -5.000000000000e+00 9.008812686339e-05
3.275000000000e+00 0.000000000000e+00 -5.000000000000e+00 8.752151738743e-05
3.300000000000e+00 0.000000000000e+00 -5.000000000000e+00 8.505911121324e-05
3.325000000000e+00 0.000000000000e+00 -5.000000000000e+00 8.270191169270e-05
3.350000000000e+00 0.000000000000e+00 -5.000000000000e+00 8.045060229221e-05
3.375000000000e+00 0.000000000000e+00 -5.000000000000e+00 7.830557786367e-05
3.400000000000e+00 0.000000000000e+00 -5.000000000000e+00 7.626697734766e-05
3.425000000000e+00 0.000000000000e+00 -5.000000000000e+00 7.433471745545e-05
3.450000000000e+00 0.000000000000e+00 -5.000000000000e+00 7.250852692557e-05
3.475000000000e+00 0.000000000000e+00 -5.000000000000e+00 7.078798100343e-05
3.500000000000e+00 0.000000000000e+00 -5.000000000000e+00 6.917253584639e-05
3.525000000000e+00 0.000000000000e+00 -5.000000000000e+00 6.766156261145e-05
3.550000000000e+00 0.000000000000e+00 -5.000000000000e+00 6.625438103647e-05
3.575000000000e+00 0.000000000000e+00 -5.000000000000e+00 6.495029237786e-05
3.600000000000e+00 0.000000000000e+00 -5.000000000000e+00 6.374861161750e-05
3.625000000000e+00 0.000000000000e+00 -5.000000000000e+00 6.264869889846e-05
3.650000000000e+00 0.000000000000e+00 -5.000000000000e+00 6.164999019229e-05
3.675000000000e+00 0.000000000000e+00 -5.000000000000e+00 6.075202724096e-05
3.700000000000e+00 0.000000000000e+00 -5.000000000000e+00 5.995448685220e-05
3.725000000000e+00 0.000000000000e+00 -5.000000000000e+00 5.925720966026e-05
3.750000000000e+00 0.000000000000e+00 -5.000000000000e+00 5.866022849282e-05
3.775000000000e+00 0.000000000000e+00 -5.000000000000e+00 5.816379651077e-05
3.800000000000e+00 0.000000000000e+00 -5.000000000000e+00 5.776841531061e-05
3.825000000000e+00 0.000000000000e+00 -5.000000000000e+00 5.747486319891e-05
3.850000000000e+00 0.000000000000e+00 -5.000000000000e+00 5.728422386602e-05
3.875000000000e+00 0.000000000000e+00 -5.000000000000e+00 5.719791570155e-05
3.900000000000e+00 0.000000000000e+00 -5.000000000000e+00 5.721772200746e-05
3.925000000000e+00 0.000000000000e+00 -5.000000000000e+00 5.734582237619e-05
3.950000000000e+00 0.000000000000e+00 -5.000000000000e+00 5.758482551156e-05
3.975000000000e+00 0.000000000000e+00 -5.000000000000e+00 5.793780377886e-05
4.000000000000e+00 0.000000000000e+00 -5.000000000000e+00 5.840832977805e-05
4.025000000000e+00 0.000000000000e+00 -5.000000000000e+00 5.900051524013e-05
4.050000000000e+00 0.000000000000e+00 -5.000000000000e+00 5.971905255184e-05
4.075000000000e+00 0.000000000000e+00 -5.000000000000e+00 6.056925921697e-05
4.100000000000e+00 0.000000000000e+00 -5.000000000000e+00 6.155712556461e-05
4.125000000000e+00 0.000000000000e+00 -5.000000000000e+00 6.268936601401e-05
4.150000000000e+00 0.000000000000e+00 -5.000000000000e+00 6.397347420342e-05
4.175000000000e+00 0.000000000000e+00 -5.000000000000e+00 6.541778228410e-05
4.200000000000e+00 0.000000000000e+00 -5.000000000000e+00 6.703152467172e-05
4.225000000000e+00 0.000000000000e+00 -5.000000000000e+00 6.882490653352e-05
4.250000000000e+00 0.000000000000e+00 -5.000000000000e+00 7.080917727061e-05
4.275000000000e+00 0.000000000000e+00 -5.000000000000e+00 7.299670922962e-05
4.300000000000e+00 0.000000000000e+00 -5.000000000000e+00 7.540108184521e-05
4.325000000000e+00 0.000000000000e+00 -5.000000000000e+00 7.803717137359e-05
4.350000000000e+00 0.000000000000e+00 -5.000000000000e+00 8.092124632583e-05
4.375000000000e+00 0.000000000000e+00 -5.000000000000e+00 8.407106864646e-05
4.400000000000e+00 0.000000000000e+00 -5.000000000000e+00 8.750600060658e-05
4.425000000000e+00 0.000000000000e+00 -5.000000000000e+00 9.124711728898e-05
4.450000000000e+00 0.000000000000e+00 -5.000000000000e+00 9.531732443383e-05
4.475000000000e+00 0.000000000000e+00 -5.000000000000e+00 9.974148128592e-05
4.500000000000e+00 0.000000000000e+00 -5.000000000000e+00 1.045465279345e-04
4.525000000000e+00 0.000000000000e+00 -5.000000000000e+00 1.097616164638e-04
4.550000000000e+00 0.000000000000e+00 -5.000000000000e+00 1.154182450331e-04
4.575000000000e+00 0.000000000000e+00 -5.000000000000e+00 1.215503937753e-04
4.600000000000e+00 0.000000000000e+00 -5.000000000000e+00 1.281946611453e-04
4.625000000000e+00 0.000000000000e+00 -5.000000000000e+00 1.353903990526e-04
4.650000000000e+00 0.000000000000e+00 -5.000000000000e+00 1.431798447805e-04
4.675000000000e+00 0.000000000000e+00 -5.000000000000e+00 1.516082473211e-04
4.700000000000e+00 0.000000000000e+00 -5.000000000000e+00 1.607239853375e-04
4.725000000000e+00 0.000000000000e+00 -5.000000000000e+00 1.705786734952e-04
4.750000000000e+00 0.000000000000e+00 -5.000000000000e+00 1.812272533885e-04
4.775000000000e+00 0.000000000000e+00 -5.000000000000e+00 1.927280647072e-04
4.800000000000e+00 0.000000000000e+00 -5.000000000000e+00 2.051428916504e-04
4.825000000000e+00 0.000000000000e+00 -5.000000000000e+00 2.185369788876e-04
4.850000000000e+00 0.000000000000e+00 -5.000000000000e+00 2.329790105862e-04
4.875000000000e+00 0.000000000000e+00 -5.000000000000e+00 2.485410451645e-04
4.900000000000e+00 0.000000000000e+00 -5.000000000000e+00 2.652983974887e-04
4.925000000000e+00 0.000000000000e+00 -5.000000000000e+00 2.833294592032e-04
4.950000000000e+00 0.000000000000e+00 -5.000000000000e+00 3.027154467650e-04
4.975000000000e+00 0.000000000000e+00 -5.000000000000e+00 3.235400655502e-04
5.000000000000e+00 0.000000000000e+00 -5.000000000000e+00 3.458890771177e-04
5.025000000000e+00 0.000000000000e+00 -5.000000000000e+00 3.698497553720e-04
5.050000000000e+00 0.000000000000e+00 -5.000000000000e+00 3.955102159865e-04
5.075000000000e+00 0.000000000000e+00 -5.000000000000e+00 4.229586020799e-04
5.100000000000e+00 0.000000000000e+00 -5.000000000000e+00 4.522821078457e-04
5.125000000000e+00 0.000000000000e+00 -5.000000000000e+00 4.835658207116e-04
5.150000000000e+00 0.000000000000e+00 -5.000000000000e+00 5.168913617886e-04
5.175000000000e+00 0.000000000000e+00 -5.000000000000e+00 5.523353040350e-04
5.200000000000e+00 0.000000000000e+00 -5.000000000000e+00 5.899673479423e-04
5.225000000000e+00 0.000000000000e+00 -5.000000000000e+00 6.298482359543e-04
5.250000000000e+00 0.000000000000e+00 -5.000000000000e+00 6.720273896297e-04
5.275000000000e+00 0.000000000000e+00 -5.000000000000e+00 7.165402582121e-04
5.300000000000e+00 0.000000000000e+00 -5.000000000000e+00 7.634053743081e-04
5.325000000000e+00 0.000000000000e+00 -5.000000000000e+00 8.126211224060e-04
5.350000000000e+00 0.000000000000e+00 -5.000000000000e+00 8.641622396199e-04
5.375000000000e+00 0.000000000000e+00 -5.000000000000e+00 9.179760859557e-04
5.400000000000e+00 0.000000000000e+00 -5.000000000000e+00 9.739787440966e-04
5.425000000000e+00 0.000000000000e+00 -5.000000000000e+00 1.032051036519e-03
5.450000000000e+00 0.000000000000e+00 -5.000000000000e+00 1.092034580638e-03
5.475000000000e+00 0.000000000000e+00 -5.000000000000e+00 1.153728040042e-03
5.500000000000e+00 0.000000000000e+00 -5.000000000000e+00 1.216883770269e-03
5.525000000000e+00 0.000000000000e+00 -5.000000000000e+00 1.281205098614e-03
5.550000000000e+00 0.000000000000e+00 -5.000000000000e+00 1.346344515378e-03
5.575000000000e+00 0.000000000000e+00 -5.000000000000e+00 1.411903083796e-03
5.600000000000e+00 0.000000000000e+00 -5.000000000000e+00 1.477431391201e-03
5.625000000000e+00 0.000000000000e+00 -5.000000000000e+00 1.542432357671e-03
5.650000000000e+00 0.000000000000e+00 -5.000000000000e+00 1.606366182846e-03
5.675000000000e+00 0.000000000000e+00 -5.000000000000e+00 1.668657640454e-03
5.700000000000e+00 0.000000000000e+00 -5.000000000000e+00 1.728705819159e-03
5.725000000000e+00 0.000000000000e+00 -5.000000000000e+00 1.785896257901e-03
5.750000000000e+00 0.000000000000e+00 -5.000000000000e+00 1.839615239905e-03
5.775000000000e+00 0.000000000000e+00 -5.000000000000e+00 1.889265804943e-03
5.800000000000e+00 0.000000000000e+00 -5.000000000000e+00 1.934284834084e-03
5.825000000000e+00 0.000000000000e+00 -5.000000000000e+00 1.974160380356e-03
5.850000000000e+00 0.000000000000e+00 -5.000000000000e+00 2.008448289947e-03
5.875000000000e+00 0.000000000000e+00 -5.000000000000e+00 2.036787106845e-03
5.900000000000e+00 0.000000000000e+00 -5.000000000000e+00 2.058910296777e-03
5.925000000000e+00 0.000000000000e+00 -5.000000000000e+00 2.074654969246e-03
5.950000000000e+00 0.000000000000e+00 -5.000000000000e+00 2.083966509953e-03
5.975000000000e+00 0.000000000000e+00 -5.000000000000e+00 2.086898835916e-03
6.000000000000e+00 0.000000000000e+00 -5.000000000000e+00 2.083610316845e-03
6.025000000000e+00 0.000000000000e+00 -5.000000000000e+00 2.074355728509e-03
6.050000000000e+00 0.000000000000e+00 -5.000000000000e+00 2.059474878460e-03
6.075000000000e+00 0.000000000000e+00 -5.000000000000e+00 2.039378742065e-03
6.100000000000e+00 0.000000000000e+00 -5.000000000000e+00 2.014534050587e-03
6.125000000000e+00 0.000000000000e+00 -5.000000000000e+00 1.985447281500e-03
6.150000000000e+00 0.000000000000e+00 -5.000000000000e+00 1.952648925462e-03
6.175000000000e+00 0.000000000000e+00 -5.000000000000e+00 1.916678765228e-03
6.200000000000e+00 0.000000000000e+00 -5.000000000000e+00 1.878072724460e-03
6.225000000000e+00 0.000000000000e+00 -5.000000000000e+00 1.837351653979e-03
6.250000000000e+00 0.000000000000e+00 -5.000000000000e+00 1.795012240823e-03
6.275000000000e+00 0.000000000000e+00 -5.000000000000e+00 1.751520066933e-03
6.300000000000e+00 0.000000000000e+00 -5.000000000000e+00 1.707304718453e-03
6.325000000000e+00 0.000000000000e+00 -5.000000000000e+00 1.662756756519e-03
6.350000000000e+00 0.000000000000e+00 -5.000000000000e+00 1.618226304559e-03
6.375000000000e+00 0.000000000000e+00 -5.000000000000e+00 1.574022981075e-03
6.400000000000e+00 0.000000000000e+00 -5.000000000000e+00 1.530416904379e-03
6.425000000000e+00 0.000000000000e+00 -5.000000000000e+00 1.487640510510e-03
6.450000000000e+00 0.000000000000e+00 -5.000000000000e+00 1.445890951389e-03
6.475000000000e+00 0.000000000000e+00 -5.000000000000e+00 1.405332872221e-03
6.500000000000e+00 0.000000000000e+00 -5.000000000000e+00 1.366101401143e-03
6.525000000000e+00 0.000000000000e+00 -5.000000000000e+00 1.328305217393e-03
6.550000000000e+00 0.000000000000e+00 -5.000000000000e+00 1.292029594946e-03
6.575000000000e+00 0.000000000000e+00 -5.000000000000e+00 1.257339345551e-03
6.600000000000e+00 0.000000000000e+00 -5.000000000000e+00 1.224281608060e-03
6.625000000000e+00 0.000000000000e+00 -5.000000000000e+00 1.192888449752e-03
6.650000000000e+00 0.000000000000e+00 -5.000000000000e+00 1.163179260371e-03
6.675000000000e+00 0.000000000000e+00 -5.000000000000e+00 1.135162931176e-03
6.700000000000e+00 0.000000000000e+00 -5.000000000000e+00 1.108839819975e-03
6.725000000000e+00 0.000000000000e+00 -5.000000000000e+00 1.084203509312e-03
6.750000000000e+00 0.000000000000e+00 -5.000000000000e+00 1.061242369283e-03
6.775000000000e+00 0.000000000000e+00 -5.000000000000e+00 1.039940939134e-03
6.800000000000e+00 0.000000000000e+00 -5.000000000000e+00 1.020281143339e-03
6.825000000000e+00 0.000000000000e+00 -5.000000000000e+00 1.002243358493e-03
6.850000000000e+00 0.000000000000e+00 -5.000000000000e+00 9.858073473662e-04
6.875000000000e+00 0.000000000000e+00 -5.000000000000e+00 9.709530760117e-04
6.900000000000e+00 0.000000000000e+00 -5.000000000000e+00 9.576614290993e-04
6.925000000000e+00 0.000000000000e+00 -5.000000000000e+00 9.459148377396e-04
6.950000000000e+00 0.000000000000e+00 -5.000000000000e+00 9.356978330738e-04
6.975000000000e+00 0.000000000000e+00 -5.000000000000e+00 9.269975378966e-04
7.000000000000e+00 0.000000000000e+00 -5.000000000000e+00 9.198041075954e-04
7.025000000000e+00 0.000000000000e+00 -5.000000000000e+00 9.141111307647e-04
7.050000000000e+00 0.000000000000e+00 -5.000000000000e+00 9.099159990119e-04
7.075000000000e+00 0.000000000000e+00 -5.000000000000e+00 9.072202547210e-04
7.100000000000e+00 0.000000000000e+00 -5.000000000000e+00 9.060299248985e-04
7.125000000000e+00 0.000000000000e+00 -5.000000000000e+00 9.063558486947e-04
7.150000000000e+00 0.000000000000e+00 -5.000000000000e+00 9.082140057722e-04
7.175000000000e+00 0.000000000000e+00 -5.000000000000e+00 9.116258523990e-04
7.200000000000e+00 0.000000000000e+00 -5.000000000000e+00 9.166186719602e-04
7.225000000000e+00 0.000000000000e+00 -5.000000000000e+00 9.232259465331e-04
7.250000000000e+00 0.000000000000e+00 -5.000000000000e+00 9.314877562455e-04
7.275000000000e+00 0.000000000000e+00 -5.000000000000e+00 9.414512133567e-04
7.300000000000e+00 0.000000000000e+00 -5.000000000000e+00 9.531709383654e-04
7.325000000000e+00 0.000000000000e+00 -5.000000000000e+00 9.667095859841e-04
7.350000000000e+00 0.000000000000e+00 -5.000000000000e+00 9.821384295351e-04
7.375000000000e+00 0.000000000000e+00 -5.000000000000e+00 9.995380132534e-04
7.400000000000e+00 0.000000000000e+00 -5.000000000000e+00 1.018998883148e-03
7.425000000000e+00 0.000000000000e+00 -5.000000000000e+00 1.040622408535e-03
7.450000000000e+00 0.000000000000e+00 -5.000000000000e+00 1.064521708139e-03
7.475000000000e+00 0.000000000000e+00 -5.000000000000e+00 1.090822696868e-03
7.500000000000e+00 0.000000000000e+00 -5.000000000000e+00 1.119665272019e-03
7.525000000000e+00 0.000000000000e+00 -5.000000000000e+00 1.151204660995e-03
7.550000000000e+00 0.000000000000e+00 -5.000000000000e+00 1.185612956555e-03
7.575000000000e+00 0.000000000000e+00 -5.000000000000e+00 1.223080870568e-03
7.600000000000e+00 0.000000000000e+00 -5.000000000000e+00 1.263819743234e-03
7.625000000000e+00 0.000000000000e+00 -5.000000000000e+00 1.308063852142e-03
7.650000000000e+00 0.000000000000e+00 -5.000000000000e+00 1.356073074744e-03
7.675000000000e+00 0.000000000000e+00 -5.000000000000e+00 1.408135969193e-03
7.700000000000e+00 0.000000000000e+00 -5.000000000000e+00 1.464573352790e-03
7.725000000000e+00 0.000000000000e+00 -5.000000000000e+00 1.525742475204e-03
7.750000000000e+00 0.000000000000e+00 -5.000000000000e+00 1.592041906325e-03
7.775000000000e+00 0.000000000000e+00 -5.000000000000e+00 1.663917287500e-03
7.800000000000e+00 0.000000000000e+00 -5.000000000000e+00 1.741868131954e-03
7.825000000000e+00 0.000000000000e+00 -5.000000000000e+00 1.826455908143e-03
7.850000000000e+00 0.000000000000e+00 -5.000000000000e+00 1.918313702141e-03
7.875000000000e+00 0.000000000000e+00 -5.000000000000e+00 2.018157837310e-03
7.900000000000e+00 0.000000000000e+00 -5.000000000000e+00 2.126801938332e-03
7.925000000000e+00 0.000000000000e+00 -5.000000000000e+00 2.245174072712e-03
7.950000000000e+00 0.000000000000e+00 -5.000000000000e+00 2.374337800641e-03
7.975000000000e+00 0.000000000000e+00 -5.000000000000e+00 2.515518235328e-03
8.000000000000e+00 0.000000000000e+00 -5.000000000000e+00 2.670134592427e-03
8.025000000000e+00 0.000000000000e+00 -5.000000000000e+00 2.839841237153e-03
8.050000000000e+00 0.000000000000e+00 -5.000000000000e+00 3.026579994849e-03
8.075000000000e+00 0.000000000000e+00 -5.000000000000e+00 3.232647590079e-03
8.100000000000e+00 0.000000000000e+00 -5.000000000000e+00 3.460783704342e-03
8.125000000000e+00 0.000000000000e+00 -5.000000000000e+00 3.714287591895e-03
8.150000000000e+00 0.000000000000e+00 -5.000000000000e+00 3.997174966437e-03
8.175000000000e+00 0.000000000000e+00 -5.000000000000e+00 4.314392826173e-03
8.200000000000e+00 0.000000000000e+00 -5.000000000000e+00 4.672119540658e-03
8.225000000000e+00 0.000000000000e+00 -5.000000000000e+00 5.078193666944e-03
8.250000000000e+00 0.000000000000e+00 -5.000000000000e+00 5.542742913146e-03
8.275000000000e+00 0.000000000000e+00 -5.000000000000e+00 6.079135041574e-03
8.300000000000e+00 0.000000000000e+00 -5.000000000000e+00 6.705467637901e-03
8.325000000000e+00 0.000000000000e+00 -5.000000000000e+00 7.447003549734e-03
8.350000000000e+00 0.000000000000e+00 -5.000000000000e+00 8.340363821579e-03
8.375000000000e+00 0.000000000000e+00 -5.000000000000e+00 9.441227520639e-03
8.400000000000e+00 0.000000000000e+00 -5.000000000000e+00 1.083969504086e-02
8.425000000000e+00 0.000000000000e+00 -5.000000000000e+00 1.269455689505e-02
8.450000000000e+00 0.000000000000e+00 -5.000000000000e+00 1.532296793403e-02
8.475000000000e+00 0.000000000000e+00 -5.000000000000e+00 1.950324196713e-02
8.500000000000e+00 0.000000000000e+00 -5.000000000000e+00 2.818441938584e-02
8.525000000000e+00 0.000000000000e+00 -5.000000000000e+00 5.271048989803e-02
8.550000000000e+00 0.000000000000e+00 -5.000000000000e+00 5.042948234662e-02
8.575000000000e+00 0.000000000000e+00 -5.000000000000e+00 2.573806480587e-02
8.600000000000e+00 0.000000000000e+00 -5.000000000000e+00 1.988968321806e-02
8.625000000000e+00 0.000000000000e+00 -5.000000000000e+00 1.684186540277e-02
8.650000000000e+00 0.000000000000e+00 -5.000000000000e+00 1.493085627549e-02