 TITLE = "Profiles along polylines"
 VARIABLES = "DIST" "CONCENTRATION1" 
 ZONE T="TIME=0.000000000000e+00"
0.000000000000e+00 0.000000000000e+00 
1.000000000000e-01 0.000000000000e+00 
2.000000000000e-01 0.000000000000e+00 
3.000000000000e-01 0.000000000000e+00 
4.000000000000e-01 0.000000000000e+00 
5.000000000000e-01 0.000000000000e+00 
6.000000000000e-01 0.000000000000e+00 
7.000000000000e-01 0.000000000000e+00 
8.000000000000e-01 0.000000000000e+00 
9.000000000000e-01 0.000000000000e+00 
1.000000000000e+00 0.000000000000e+00 
1.100000000000e+00 0.000000000000e+00 
1.200000000000e+00 0.000000000000e+00 
1.300000000000e+00 0.000000000000e+00 
1.400000000000e+00 0.000000000000e+00 
1.500000000000e+00 0.000000000000e+00 
1.600000000000e+00 0.000000000000e+00 
1.700000000000e+00 0.000000000000e+00 
1.800000000000e+00 0.000000000000e+00 
1.900000000000e+00 0.000000000000e+00 
2.000000000000e+00 0.000000000000e+00 
2.100000000000e+00 0.000000000000e+00 
2.200000000000e+00 0.000000000000e+00 
2.300000000000e+00 0.000000000000e+00 
2.400000000000e+00 0.000000000000e+00 
2.500000000000e+00 0.000000000000e+00 
2.600000000000e+00 0.000000000000e+00 
2.700000000000e+00 0.000000000000e+00 
2.800000000000e+00 0.000000000000e+00 
2.900000000000e+00 0.000000000000e+00 
3.000000000000e+00 0.000000000000e+00 
3.100000000000e+00 0.000000000000e+00 
3.200000000000e+00 0.000000000000e+00 
3.300000000000e+00 0.000000000000e+00 
3.400000000000e+00 0.000000000000e+00 
3.500000000000e+00 0.000000000000e+00 
3.600000000000e+00 0.000000000000e+00 
3.700000000000e+00 0.000000000000e+00 
3.800000000000e+00 0.000000000000e+00 
3.900000000000e+00 0.000000000000e+00 
4.000000000000e+00 0.000000000000e+00 
 TITLE = "Profiles along polylines"
 VARIABLES = "DIST" "CONCENTRATION1" 
 ZONE T="TIME=7.200000000000e+03"
0.000000000000e+00 0.000000000000e+00 
1.000000000000e-01 -4.927262362090e-50 
2.000000000000e-01 4.470704869739e-49 
3.000000000000e-01 -5.266811474876e-50 
4.000000000000e-01 -4.586329007390e-49 
5.000000000000e-01 9.914600621530e-50 
6.000000000000e-01 -2.296755929897e-50 
7.000000000000e-01 5.640406634341e-51 
8.000000000000e-01 -1.441467463942e-51 
9.000000000000e-01 3.064760564144e-52 
1.000000000000e+00 1.179422599870e-52 
1.100000000000e+00 2.125624730452e-52 
1.200000000000e+00 -2.551941276083e-53 
1.300000000000e+00 1.333978656596e-53 
1.400000000000e+00 -3.440858931205e-54 
1.500000000000e+00 1.131913926197e-54 
1.600000000000e+00 -5.140421711281e-55 
1.700000000000e+00 1.179163928242e-54 
1.800000000000e+00 -4.820569984453e-54 
1.900000000000e+00 1.946731818532e-53 
2.000000000000e+00 -7.415448674812e-53 
2.100000000000e+00 2.623803385864e-52 
2.200000000000e+00 -8.082959827512e-52 
2.300000000000e+00 1.467857650127e-51 
2.400000000000e+00 7.818518665564e-51 
2.500000000000e+00 1.238950639926e-51 
2.600000000000e+00 -2.297668526151e-52 
2.700000000000e+00 4.850947258681e-53 
2.800000000000e+00 -1.156915903302e-53 
2.900000000000e+00 2.335481543691e-54 
3.000000000000e+00 2.030693738403e-54 
3.100000000000e+00 -1.198161788701e-53 
3.200000000000e+00 5.156065502021e-53 
3.300000000000e+00 -2.114061467662e-52 
3.400000000000e+00 8.372677204516e-52 
3.500000000000e+00 -3.217165245986e-51 
3.600000000000e+00 1.203814888291e-50 
3.700000000000e+00 -4.389069409981e-50 
3.800000000000e+00 1.539592387359e-49 
3.900000000000e+00 -5.258406239950e-49 
4.000000000000e+00 0.000000000000e+00 
 ZONE T="TIME=1.440000000000e+04"
0.000000000000e+00 0.000000000000e+00 
1.000000000000e-01 1.486465096038e-47 
2.000000000000e-01 -8.579646057239e-47 
3.000000000000e-01 -1.556753903566e-46 
4.000000000000e-01 -1.317661821863e-47 
5.000000000000e-01 2.911350779985e-48 
6.000000000000e-01 -6.538442277205e-49 
7.000000000000e-01 1.135875889905e-49 
8.000000000000e-01 1.543902163770e-49 
9.000000000000e-01 -2.121489712886e-49 
1.000000000000e+00 -1.988943464857e-47 
1.100000000000e+00 -1.826591981685e-47 
1.200000000000e+00 1.810558152388e-48 
1.300000000000e+00 -1.069258170039e-48 
1.400000000000e+00 2.791553510258e-49 
1.500000000000e+00 -9.992306118683e-50 
1.600000000000e+00 8.376139245524e-50 
1.700000000000e+00 -2.790596402949e-49 
1.800000000000e+00 1.151471170567e-48 
1.900000000000e+00 -4.585874826965e-48 
2.000000000000e+00 1.736838244124e-47 
2.100000000000e+00 -6.177763095073e-47 
2.200000000000e+00 1.993177109042e-46 
2.300000000000e+00 -4.625012664862e-46 
2.400000000000e+00 3.225158786845e-47 
2.500000000000e+00 8.512661083787e-48 
2.600000000000e+00 -1.151289912091e-48 
2.700000000000e+00 1.477444090771e-49 
2.800000000000e+00 -4.999077240782e-50 
2.900000000000e+00 1.304628011998e-49 
3.000000000000e+00 -5.616932948726e-49 
3.100000000000e+00 2.447441420418e-48 
3.200000000000e+00 -1.037582161289e-47 
3.300000000000e+00 4.251253355345e-47 
3.400000000000e+00 -1.683937454207e-46 
3.500000000000e+00 6.472212463369e-46 
3.600000000000e+00 -2.422993355216e-45 
3.700000000000e+00 8.843207990666e-45 
3.800000000000e+00 -3.109709445476e-44 
3.900000000000e+00 1.090385310359e-43 
4.000000000000e+00 0.000000000000e+00 
 ZONE T="TIME=2.160000000000e+04"
0.000000000000e+00 0.000000000000e+00 
1.000000000000e-01 3.400887559318e-46 
2.000000000000e-01 -2.012833029591e-45 
3.000000000000e-01 -3.515852327448e-45 
4.000000000000e-01 -2.640535376697e-46 
5.000000000000e-01 5.752457951495e-47 
6.000000000000e-01 -9.786683437981e-48 
7.000000000000e-01 -1.263047114404e-47 
8.000000000000e-01 8.436716894854e-47 
9.000000000000e-01 -5.042706170598e-46 
1.000000000000e+00 -2.055417757507e-45 
1.100000000000e+00 -6.385494460340e-46 
1.200000000000e+00 2.077155964795e-46 
1.300000000000e+00 -9.112433305044e-47 
1.400000000000e+00 2.911613388501e-47 
1.500000000000e+00 -7.795641876000e-48 
1.600000000000e+00 -5.600348837229e-48 
1.700000000000e+00 4.268169596730e-47 
1.800000000000e+00 -1.972505448075e-46 
1.900000000000e+00 8.158326820019e-46 
2.000000000000e+00 -3.133225241539e-45 
2.100000000000e+00 1.104139176552e-44 
2.200000000000e+00 -3.177615143619e-44 
2.300000000000e+00 5.968212638733e-44 
2.400000000000e+00 7.752512425673e-43 
2.500000000000e+00 1.577428407701e-43 
2.600000000000e+00 -2.992295272934e-44 
2.700000000000e+00 6.408529382378e-45 
2.800000000000e+00 -1.556597508813e-45 
2.900000000000e+00 4.052863798045e-46 
3.000000000000e+00 -1.499212021975e-46 
3.100000000000e+00 2.383319100858e-46 
3.200000000000e+00 -9.074547348702e-46 
3.300000000000e+00 3.690749075092e-45 
3.400000000000e+00 -1.459401380112e-44 
3.500000000000e+00 5.594933576808e-44 
3.600000000000e+00 -2.083920467361e-43 
3.700000000000e+00 7.522538480033e-43 
3.800000000000e+00 -2.574545342610e-42 
3.900000000000e+00 6.332516240818e-42 
4.000000000000e+00 0.000000000000e+00 
 ZONE T="TIME=2.880000000000e+04"
0.000000000000e+00 0.000000000000e+00 
1.000000000000e-01 -1.923426224772e-45 
2.000000000000e-01 9.346533594473e-45 
3.000000000000e-01 1.883713709375e-44 
4.000000000000e-01 4.405406426921e-45 
5.000000000000e-01 -8.889121246529e-46 
6.000000000000e-01 2.787758622990e-46 
7.000000000000e-01 -4.370056868030e-46 
8.000000000000e-01 2.145984057078e-45 
9.000000000000e-01 -1.312535950720e-44 
1.000000000000e+00 -4.878682724404e-44 
1.100000000000e+00 -1.325718358712e-44 
1.200000000000e+00 5.321259223036e-45 
1.300000000000e+00 -2.249254614143e-45 
1.400000000000e+00 6.996279619674e-46 
1.500000000000e+00 -8.012165475028e-47 
1.600000000000e+00 -6.361689457791e-46 
1.700000000000e+00 3.156194265623e-45 
1.800000000000e+00 -1.341100193753e-44 
1.900000000000e+00 5.355787174672e-44 
2.000000000000e+00 -2.027354126379e-43 
2.100000000000e+00 7.185430403222e-43 
2.200000000000e+00 -2.265086743341e-42 
2.300000000000e+00 6.077142861164e-42 
2.400000000000e+00 7.501469451720e-42 
2.500000000000e+00 3.057558890093e-43 
2.600000000000e+00 -3.407726873324e-44 
2.700000000000e+00 3.877845984402e-45 
2.800000000000e+00 -6.172030145067e-46 
2.900000000000e+00 2.504552090688e-46 
3.000000000000e+00 -6.697309795191e-46 
3.100000000000e+00 2.876178441835e-45 
3.200000000000e+00 -1.229345085488e-44 
3.300000000000e+00 5.064688844610e-44 
3.400000000000e+00 -2.010089581744e-43 
3.500000000000e+00 7.710171732240e-43 
3.600000000000e+00 -2.864152937929e-42 
3.700000000000e+00 1.026287277393e-41 
3.800000000000e+00 -3.455587219941e-41 
3.900000000000e+00 9.279753674823e-41 
4.000000000000e+00 0.000000000000e+00 
 ZONE T="TIME=3.600000000000e+04"
0.000000000000e+00 0.000000000000e+00 
1.000000000000e-01 -1.684161901490e-43 
2.000000000000e-01 9.924877997447e-43 
3.000000000000e-01 1.658631377499e-42 
4.000000000000e-01 1.044246212009e-43 
5.000000000000e-01 -2.338338199841e-44 
6.000000000000e-01 6.385153835154e-45 
7.000000000000e-01 -6.535137320260e-45 
8.000000000000e-01 2.935598018785e-44 
9.000000000000e-01 -1.796628622496e-43 
1.000000000000e+00 -7.071195481149e-43 
1.100000000000e+00 -2.285274430423e-43 
1.200000000000e+00 8.238491479106e-44 
1.300000000000e+00 -3.416719875358e-44 
1.400000000000e+00 1.069536775116e-44 
1.500000000000e+00 -2.049494071274e-45 
1.600000000000e+00 -5.393277881716e-45 
1.700000000000e+00 2.879729481365e-44 
1.800000000000e+00 -1.236655724724e-43 
1.900000000000e+00 4.958922679663e-43 
2.000000000000e+00 -1.877029633261e-42 
2.100000000000e+00 6.621695281336e-42 
2.200000000000e+00 -2.068270757685e-41 
2.300000000000e+00 5.629575341351e-41 
2.400000000000e+00 6.052605857675e-41 
2.500000000000e+00 6.390959493847e-42 
2.600000000000e+00 -1.102821824862e-42 
2.700000000000e+00 2.238449514954e-43 
2.800000000000e+00 -5.335170735282e-44 
2.900000000000e+00 1.451515578948e-44 
3.000000000000e+00 -8.740417901784e-45 
3.100000000000e+00 2.467979175639e-44 
3.200000000000e+00 -1.028860921875e-43 
3.300000000000e+00 4.251849855424e-43 
3.400000000000e+00 -1.691953647972e-42 
3.500000000000e+00 6.494030253557e-42 
3.600000000000e+00 -2.408563584742e-41 
3.700000000000e+00 8.590569311292e-41 
3.800000000000e+00 -2.863171149413e-40 
3.900000000000e+00 7.555067696653e-40 
4.000000000000e+00 0.000000000000e+00 
 ZONE T="TIME=4.320000000000e+04"
0.000000000000e+00 0.000000000000e+00 
1.000000000000e-01 -4.580879693458e-42 
2.000000000000e-01 2.708049634278e-41 
3.000000000000e-01 4.530219200557e-41 
4.000000000000e-01 3.282356726694e-42 
5.000000000000e-01 -6.773227901545e-43 
6.000000000000e-01 1.625939341822e-43 
7.000000000000e-01 -9.799079347890e-44 
8.000000000000e-01 3.528126663582e-43 
9.000000000000e-01 -2.128159201597e-42 
1.000000000000e+00 -8.043807515167e-42 
1.100000000000e+00 -2.593813423636e-42 
1.200000000000e+00 9.127809533913e-43 
1.300000000000e+00 -3.976842775759e-43 
1.400000000000e+00 1.264666684737e-43 
1.500000000000e+00 -3.723663272705e-44 
1.600000000000e+00 4.882047340382e-45 
1.700000000000e+00 2.558069476161e-44 
1.800000000000e+00 -1.269907583297e-43 
1.900000000000e+00 5.278952499896e-43 
2.000000000000e+00 -2.000170927925e-42 
2.100000000000e+00 6.854115512472e-42 
2.200000000000e+00 -2.114472625365e-41 
2.300000000000e+00 8.835052207443e-41 
2.400000000000e+00 -2.971763292066e-40 
2.500000000000e+00 1.007845341491e-40 
2.600000000000e+00 -2.144470529439e-41 
2.700000000000e+00 4.941565144042e-42 
2.800000000000e+00 -1.232415650205e-42 
2.900000000000e+00 3.229055303662e-43 
3.000000000000e+00 -1.151855720064e-43 
3.100000000000e+00 1.725315560364e-43 
3.200000000000e+00 -6.634288797475e-43 
3.300000000000e+00 2.739411271996e-42 
3.400000000000e+00 -1.092775896702e-41 
3.500000000000e+00 4.199026641249e-41 
3.600000000000e+00 -1.557024707805e-40 
3.700000000000e+00 5.545520741716e-40 
3.800000000000e+00 -1.844543268501e-39 
3.900000000000e+00 5.059018333947e-39 
4.000000000000e+00 0.000000000000e+00 
 ZONE T="TIME=5.040000000000e+04"
0.000000000000e+00 0.000000000000e+00 
1.000000000000e-01 -7.434180610333e-41 
2.000000000000e-01 4.470337948374e-40 
3.000000000000e-01 7.337708354207e-40 
4.000000000000e-01 4.655347288663e-41 
5.000000000000e-01 -9.855357752258e-42 
6.000000000000e-01 2.307449643975e-42 
7.000000000000e-01 -1.088964525281e-42 
8.000000000000e-01 3.252350661131e-42 
9.000000000000e-01 -1.941678590666e-41 
1.000000000000e+00 -7.892276107510e-41 
1.100000000000e+00 -2.954921706998e-41 
1.200000000000e+00 9.500158546900e-42 
1.300000000000e+00 -4.010102984120e-42 
1.400000000000e+00 1.283250892796e-42 
1.500000000000e+00 -5.830715145520e-43 
1.600000000000e+00 1.141828984141e-42 
1.700000000000e+00 -4.753639169141e-42 
1.800000000000e+00 1.997838182267e-41 
1.900000000000e+00 -7.967849626625e-41 
2.000000000000e+00 3.015891810037e-40 
2.100000000000e+00 -1.069309486446e-39 
2.200000000000e+00 3.363675342677e-39 
2.300000000000e+00 -8.659694022642e-39 
2.400000000000e+00 -1.418232850796e-38 
2.500000000000e+00 4.296423799047e-40 
2.600000000000e+00 -1.291498141334e-40 
2.700000000000e+00 3.396821812891e-41 
2.800000000000e+00 -8.818634118493e-42 
2.900000000000e+00 2.346407342154e-42 
3.000000000000e+00 -8.533055135112e-43 
3.100000000000e+00 1.306076074504e-42 
3.200000000000e+00 -5.022373439344e-42 
3.300000000000e+00 2.069342591071e-41 
3.400000000000e+00 -8.243146482138e-41 
3.500000000000e+00 3.164979920648e-40 
3.600000000000e+00 -1.173140422112e-39 
3.700000000000e+00 4.177096289544e-39 
3.800000000000e+00 -1.388190438973e-38 
3.900000000000e+00 3.658737219736e-38 
4.000000000000e+00 0.000000000000e+00 
 ZONE T="TIME=5.760000000000e+04"
0.000000000000e+00 0.000000000000e+00 
1.000000000000e-01 -9.493375194979e-40 
2.000000000000e-01 5.752417542273e-39 
3.000000000000e-01 9.372288439991e-39 
4.000000000000e-01 6.100490473349e-40 
5.000000000000e-01 -1.287865945681e-40 
6.000000000000e-01 2.964636160123e-41 
7.000000000000e-01 -1.180693830403e-41 
8.000000000000e-01 2.886915711111e-41 
9.000000000000e-01 -1.686172524636e-40 
1.000000000000e+00 -7.165828709648e-40 
1.100000000000e+00 -2.940585364375e-40 
1.200000000000e+00 8.788491431919e-41 
1.300000000000e+00 -3.679888884174e-41 
1.400000000000e+00 1.181416982790e-41 
1.500000000000e+00 -7.366194748764e-42 
1.600000000000e+00 2.118668080554e-41 
1.700000000000e+00 -9.329087338864e-41 
1.800000000000e+00 3.953605739319e-40 
1.900000000000e+00 -1.581627097026e-39 
2.000000000000e+00 5.987396854826e-39 
2.100000000000e+00 -2.116748024190e-38 
2.200000000000e+00 6.621635168532e-38 
2.300000000000e+00 -1.734695724602e-37 
2.400000000000e+00 -2.539043714598e-37 
2.500000000000e+00 -5.827554797243e-39 
2.600000000000e+00 4.067554662738e-40 
2.700000000000e+00 2.750194784311e-42 
2.800000000000e+00 -9.004755618934e-42 
2.900000000000e+00 3.546284376022e-42 
3.000000000000e+00 -2.989831554427e-42 
3.100000000000e+00 9.500726675759e-42 
3.200000000000e+00 -3.993231210419e-41 
3.300000000000e+00 1.652470696629e-40 
3.400000000000e+00 -6.579914241056e-40 
3.500000000000e+00 2.525439809052e-39 
3.600000000000e+00 -9.359038436554e-39 
3.700000000000e+00 3.331616340977e-38 
3.800000000000e+00 -1.106003963161e-37 
3.900000000000e+00 2.843464371525e-37 
4.000000000000e+00 0.000000000000e+00 
 ZONE T="TIME=6.480000000000e+04"
0.000000000000e+00 0.000000000000e+00 
1.000000000000e-01 -1.005079794416e-38 
2.000000000000e-01 6.125995452777e-38 
3.000000000000e-01 9.935748024466e-38 
4.000000000000e-01 6.804183499622e-39 
5.000000000000e-01 -1.418262796405e-39 
6.000000000000e-01 3.227202582800e-40 
7.000000000000e-01 -1.177590794423e-40 
8.000000000000e-01 2.509108755164e-40 
9.000000000000e-01 -1.437227781039e-39 
1.000000000000e+00 -6.301764101707e-39 
1.100000000000e+00 -2.744613088502e-39 
1.200000000000e+00 7.731221819420e-40 
1.300000000000e+00 -3.255375577908e-40 
1.400000000000e+00 1.039390156759e-40 
1.500000000000e+00 -7.899143584640e-41 
1.600000000000e+00 2.619489956111e-40 
1.700000000000e+00 -1.175339125011e-39 
1.800000000000e+00 5.001853600860e-39 
1.900000000000e+00 -2.004600768189e-38 
2.000000000000e+00 7.589353903669e-38 
2.100000000000e+00 -2.678347184567e-37 
2.200000000000e+00 8.343025965073e-37 
2.300000000000e+00 -2.197126243612e-36 
2.400000000000e+00 -3.201977247241e-36 
2.500000000000e+00 -1.632152339570e-37 
2.600000000000e+00 2.289514132044e-38 
2.700000000000e+00 -3.867996076780e-39 
2.800000000000e+00 8.398214094939e-40 
2.900000000000e+00 -1.996865754657e-40 
3.000000000000e+00 3.509461922315e-41 
3.100000000000e+00 5.632530472099e-41 
3.200000000000e+00 -2.940441592384e-40 
3.300000000000e+00 1.231519874056e-39 
3.400000000000e+00 -4.908894754896e-39 
3.500000000000e+00 1.884184950921e-38 
3.600000000000e+00 -6.979386876865e-38 
3.700000000000e+00 2.481371968396e-37 
3.800000000000e+00 -8.210958870990e-37 
3.900000000000e+00 2.065922439839e-36 
4.000000000000e+00 0.000000000000e+00 
 ZONE T="TIME=7.200000000000e+04"
0.000000000000e+00 0.000000000000e+00 
1.000000000000e-01 -9.155179955625e-38 
2.000000000000e-01 5.609808682802e-37 
3.000000000000e-01 9.067879705541e-37 
4.000000000000e-01 6.542872963215e-38 
5.000000000000e-01 -1.343991844536e-38 
6.000000000000e-01 3.033637811143e-39 
7.000000000000e-01 -1.067900921258e-39 
8.000000000000e-01 2.133105889257e-39 
9.000000000000e-01 -1.208626326010e-38 
1.000000000000e+00 -5.385418957398e-38 
1.100000000000e+00 -2.433794507254e-38 
1.200000000000e+00 6.546738424889e-39 
1.300000000000e+00 -2.800981126853e-39 
1.400000000000e+00 8.808513750350e-40 
1.500000000000e+00 -7.381047477678e-40 
1.600000000000e+00 2.579536764672e-39 
1.700000000000e+00 -1.168378683818e-38 
1.800000000000e+00 4.987687189975e-38 
1.900000000000e+00 -2.001878255349e-37 
2.000000000000e+00 7.579679340292e-37 
2.100000000000e+00 -2.671004358571e-36 
2.200000000000e+00 8.288243702429e-36 
2.300000000000e+00 -2.188023597030e-35 
2.400000000000e+00 -3.252993288492e-35 
2.500000000000e+00 -2.276557901228e-36 
2.600000000000e+00 3.530743771393e-37 
2.700000000000e+00 -6.538495086636e-38 
2.800000000000e+00 1.485922064653e-38 
2.900000000000e+00 -3.642035672703e-39 
3.000000000000e+00 8.237907831299e-40 
3.100000000000e+00 2.119530581003e-40 
3.200000000000e+00 -1.859227998644e-39 
3.300000000000e+00 7.949920438878e-39 
3.400000000000e+00 -3.176221826405e-38 
3.500000000000e+00 1.219577380715e-37 
3.600000000000e+00 -4.514237849519e-37 
3.700000000000e+00 1.601427120904e-36 
3.800000000000e+00 -5.272194967500e-36 
3.900000000000e+00 1.297940389965e-35 
4.000000000000e+00 0.000000000000e+00 
 ZONE T="TIME=7.920000000000e+04"
0.000000000000e+00 0.000000000000e+00 
1.000000000000e-01 -7.362198000559e-37 
2.000000000000e-01 4.533587653118e-36 
3.000000000000e-01 7.309067641108e-36 
4.000000000000e-01 5.554838081356e-37 
5.000000000000e-01 -1.124128905859e-37 
6.000000000000e-01 2.521811086224e-38 
7.000000000000e-01 -8.810776723594e-39 
8.000000000000e-01 1.741256939632e-38 
9.000000000000e-01 -9.851373236491e-38 
1.000000000000e+00 -4.395523469202e-37 
1.100000000000e+00 -2.029113516339e-37 
1.200000000000e+00 5.276358263866e-38 
1.300000000000e+00 -2.308570278324e-38 
1.400000000000e+00 7.104826871339e-39 
1.500000000000e+00 -6.124567640657e-39 
1.600000000000e+00 2.161259659812e-38 
1.700000000000e+00 -9.845979341131e-38 
1.800000000000e+00 4.214467375686e-37 
1.900000000000e+00 -1.693824670954e-36 
2.000000000000e+00 6.413808589738e-36 
2.100000000000e+00 -2.257117540371e-35 
2.200000000000e+00 6.977819196109e-35 
2.300000000000e+00 -1.843742988703e-34 
2.400000000000e+00 -2.821221827132e-34 
2.500000000000e+00 -2.377035498365e-35 
2.600000000000e+00 3.834176107133e-36 
2.700000000000e+00 -7.318397655228e-37 
2.800000000000e+00 1.685314152213e-37 
2.900000000000e+00 -4.165123929839e-38 
3.000000000000e+00 1.001747225889e-38 
3.100000000000e+00 -2.464574517113e-40 
3.200000000000e+00 -9.767420172995e-39 
3.300000000000e+00 4.328228144646e-38 
3.400000000000e+00 -1.735637166640e-37 
3.500000000000e+00 6.668359064232e-37 
3.600000000000e+00 -2.465826859327e-36 
3.700000000000e+00 8.721221450525e-36 
3.800000000000e+00 -2.851668099892e-35 
3.900000000000e+00 6.851246105008e-35 
4.000000000000e+00 0.000000000000e+00 
 ZONE T="TIME=8.640000000000e+04"
0.000000000000e+00 0.000000000000e+00 
1.000000000000e-01 -4.223364859114e-36 
2.000000000000e-01 2.735170186478e-35 
3.000000000000e-01 4.159784816562e-35 
4.000000000000e-01 8.607425447059e-37 
5.000000000000e-01 -1.825496855554e-37 
6.000000000000e-01 3.861834633905e-38 
7.000000000000e-01 -1.743221847913e-38 
8.000000000000e-01 5.231513695080e-38 
9.000000000000e-01 -2.858754631682e-37 
1.000000000000e+00 -2.249491224121e-36 
1.100000000000e+00 -1.761749405273e-36 
1.200000000000e+00 2.636540962473e-37 
1.300000000000e+00 -1.393479845638e-37 
1.400000000000e+00 3.773790013258e-38 
1.500000000000e+00 -2.986357998879e-38 
1.600000000000e+00 9.578682534837e-38 
1.700000000000e+00 -4.379275711425e-37 
1.800000000000e+00 1.885272421383e-36 
1.900000000000e+00 -7.601421105071e-36 
2.000000000000e+00 2.874618756966e-35 
2.100000000000e+00 -1.004708729414e-34 
2.200000000000e+00 3.070530083690e-34 
2.300000000000e+00 -8.639201391612e-34 
2.400000000000e+00 -1.071873066904e-33 
2.500000000000e+00 -1.215660917840e-34 
2.600000000000e+00 1.882060855695e-35 
2.700000000000e+00 -3.450795153872e-36 
2.800000000000e+00 7.772602291509e-37 
2.900000000000e+00 -1.898083338148e-37 
3.000000000000e+00 4.531057687859e-38 
3.100000000000e+00 -1.290149102530e-39 
3.200000000000e+00 -4.318869285327e-38 
3.300000000000e+00 1.924335384301e-37 
3.400000000000e+00 -7.743081956675e-37 
3.500000000000e+00 2.979859944359e-36 
3.600000000000e+00 -1.102214456976e-35 
3.700000000000e+00 3.896079759713e-35 
3.800000000000e+00 -1.273140192984e-34 
3.900000000000e+00 3.070394982219e-34 
4.000000000000e+00 0.000000000000e+00 
 ZONE T="TIME=9.360000000000e+04"
0.000000000000e+00 0.000000000000e+00 
1.000000000000e-01 -2.451797343432e-35 
2.000000000000e-01 1.606917651272e-34 
3.000000000000e-01 2.390023168732e-34 
4.000000000000e-01 2.570967713873e-36 
5.000000000000e-01 -7.348813758298e-37 
6.000000000000e-01 1.698342242476e-37 
7.000000000000e-01 -8.274694128288e-38 
8.000000000000e-01 2.359159249844e-37 
9.000000000000e-01 -1.055210105703e-36 
1.000000000000e+00 -1.247325806738e-35 
1.100000000000e+00 -1.174941150192e-35 
1.200000000000e+00 1.159652304759e-36 
1.300000000000e+00 -7.623961495906e-37 
1.400000000000e+00 1.735086251073e-37 
1.500000000000e+00 -1.487847180619e-37 
1.600000000000e+00 4.382526314379e-37 
1.700000000000e+00 -1.950853932044e-36 
1.800000000000e+00 8.277373295070e-36 
1.900000000000e+00 -3.316531808008e-35 
2.000000000000e+00 1.251556565239e-34 
2.100000000000e+00 -4.387224296271e-34 
2.200000000000e+00 1.367322120406e-33 
2.300000000000e+00 -4.406508847507e-33 
2.400000000000e+00 -3.823407086443e-33 
2.500000000000e+00 -3.167923303245e-34 
2.600000000000e+00 4.202325543956e-35 
2.700000000000e+00 -6.455524791329e-36 
2.800000000000e+00 1.301374892810e-36 
2.900000000000e+00 -2.971035995578e-37 
3.000000000000e+00 6.188837690995e-38 
3.100000000000e+00 2.554742177505e-38 
3.200000000000e+00 -1.818341353560e-37 
3.300000000000e+00 7.804019276263e-37 
3.400000000000e+00 -3.139886311199e-36 
3.500000000000e+00 1.209095620192e-35 
3.600000000000e+00 -4.469446295292e-35 
3.700000000000e+00 1.576452128929e-34 
3.800000000000e+00 -5.129618414850e-34 
3.900000000000e+00 1.226740528788e-33 
4.000000000000e+00 0.000000000000e+00 
 ZONE T="TIME=1.008000000000e+05"
0.000000000000e+00 0.000000000000e+00 
1.000000000000e-01 -1.395472071835e-34 
2.000000000000e-01 9.173636559484e-34 
3.000000000000e-01 1.353280047461e-33 
4.000000000000e-01 1.486616338004e-35 
5.000000000000e-01 -4.478710559850e-36 
6.000000000000e-01 1.072185484182e-36 
7.000000000000e-01 -5.337485043422e-37 
8.000000000000e-01 1.476451900191e-36 
9.000000000000e-01 -6.240835489186e-36 
1.000000000000e+00 -7.786949145033e-35 
1.100000000000e+00 -7.420127246395e-35 
1.200000000000e+00 6.258175496290e-36 
1.300000000000e+00 -4.576082660621e-36 
1.400000000000e+00 9.256059093420e-37 
1.500000000000e+00 -8.606526542115e-37 
1.600000000000e+00 2.389020384124e-36 
1.700000000000e+00 -1.035786350694e-35 
1.800000000000e+00 4.319116082085e-35 
1.900000000000e+00 -1.716588315045e-34 
2.000000000000e+00 6.469916117211e-34 
2.100000000000e+00 -2.284035457047e-33 
2.200000000000e+00 7.281250638332e-33 
2.300000000000e+00 -2.532068674440e-32 
2.400000000000e+00 -1.928524515355e-32 
2.500000000000e+00 -8.196481073243e-34 
2.600000000000e+00 7.815758747043e-35 
2.700000000000e+00 -6.424156519693e-36 
2.800000000000e+00 5.502525645149e-37 
2.900000000000e+00 -1.948148871467e-38 
3.000000000000e+00 -4.862011395167e-38 
3.100000000000e+00 1.717030456171e-37 
3.200000000000e+00 -7.241242618903e-37 
3.300000000000e+00 3.041320956201e-36 
3.400000000000e+00 -1.223426273913e-35 
3.500000000000e+00 4.712156619147e-35 
3.600000000000e+00 -1.740934879389e-34 
3.700000000000e+00 6.131574417777e-34 
3.800000000000e+00 -1.989769985032e-33 
3.900000000000e+00 4.739587256095e-33 
4.000000000000e+00 0.000000000000e+00 
 ZONE T="TIME=1.080000000000e+05"
0.000000000000e+00 0.000000000000e+00 
1.000000000000e-01 -7.657060310714e-34 
2.000000000000e-01 5.043720591004e-33 
3.000000000000e-01 7.425531720160e-33 
4.000000000000e-01 1.022403522895e-34 
5.000000000000e-01 -2.864246735418e-35 
6.000000000000e-01 6.863981219865e-36 
7.000000000000e-01 -3.491843461802e-36 
8.000000000000e-01 9.919986475572e-36 
9.000000000000e-01 -4.454310023416e-35 
1.000000000000e+00 -4.835479476185e-34 
1.100000000000e+00 -4.438967050931e-34 
1.200000000000e+00 3.865452972349e-35 
1.300000000000e+00 -2.803137511400e-35 
1.400000000000e+00 5.429861857916e-36 
1.500000000000e+00 -5.076303658218e-36 
1.600000000000e+00 1.343525199623e-35 
1.700000000000e+00 -5.777726237469e-35 
1.800000000000e+00 2.394280900793e-34 
1.900000000000e+00 -9.488576889586e-34 
2.000000000000e+00 3.575738886891e-33 
2.100000000000e+00 -1.266267780803e-32 
2.200000000000e+00 4.062825931260e-32 
2.300000000000e+00 -1.430759662840e-31 
2.400000000000e+00 -1.106899585398e-31 
2.500000000000e+00 -3.995441073956e-33 
2.600000000000e+00 3.692125838200e-34 
2.700000000000e+00 -3.005555628286e-35 
2.800000000000e+00 2.753375811470e-36 
2.900000000000e+00 -1.899212939228e-37 
3.000000000000e+00 -1.688194833385e-37 
3.100000000000e+00 6.841191735069e-37 
3.200000000000e+00 -2.908235162995e-36 
3.300000000000e+00 1.221229227257e-35 
3.400000000000e+00 -4.910897657310e-35 
3.500000000000e+00 1.891170787543e-34 
3.600000000000e+00 -6.987174265896e-34 
3.700000000000e+00 2.461631520810e-33 
3.800000000000e+00 -7.997078957957e-33 
3.900000000000e+00 1.910753255574e-32 
4.000000000000e+00 0.000000000000e+00 
 ZONE T="TIME=1.152000000000e+05"
0.000000000000e+00 0.000000000000e+00 
1.000000000000e-01 -4.067401813440e-33 
2.000000000000e-01 2.684000995496e-32 
3.000000000000e-01 3.952459482312e-32 
4.000000000000e-01 6.586798725924e-34 
5.000000000000e-01 -1.725582604695e-34 
6.000000000000e-01 4.103249492578e-35 
7.000000000000e-01 -2.099991828119e-35 
8.000000000000e-01 6.142489893787e-35 
9.000000000000e-01 -2.972506109866e-34 
1.000000000000e+00 -2.747770365350e-33 
1.100000000000e+00 -2.425465666963e-33 
1.200000000000e+00 2.279570270308e-34 
1.300000000000e+00 -1.596970735496e-34 
1.400000000000e+00 3.026236857762e-35 
1.500000000000e+00 -2.771179713597e-35 
1.600000000000e+00 7.011271833171e-35 
1.700000000000e+00 -3.022407078465e-34 
1.800000000000e+00 1.253329426282e-33 
1.900000000000e+00 -4.969983642859e-33 
2.000000000000e+00 1.873315696667e-32 
2.100000000000e+00 -6.633003582196e-32 
2.200000000000e+00 2.121956268385e-31 
2.300000000000e+00 -7.396257657340e-31 
2.400000000000e+00 -6.006142880993e-31 
2.500000000000e+00 -2.586411721478e-32 
2.600000000000e+00 2.838919849929e-33 
2.700000000000e+00 -3.495384058030e-34 
2.800000000000e+00 6.094799699197e-35 
2.900000000000e+00 -1.284465128056e-35 
3.000000000000e+00 2.303634002350e-36 
3.100000000000e+00 2.116672553403e-36 
3.200000000000e+00 -1.194980350124e-35 
3.300000000000e+00 5.080479947278e-35 
3.400000000000e+00 -2.042877598900e-34 
3.500000000000e+00 7.865300435407e-34 
3.600000000000e+00 -2.906645187556e-33 
3.700000000000e+00 1.024931772603e-32 
3.800000000000e+00 -3.336487297241e-32 
3.900000000000e+00 7.997664081596e-32 
4.000000000000e+00 0.000000000000e+00 
 ZONE T="TIME=1.224000000000e+05"
0.000000000000e+00 0.000000000000e+00 
1.000000000000e-01 -2.114693476875e-32 
2.000000000000e-01 1.397184859284e-31 
3.000000000000e-01 2.059294544649e-31 
4.000000000000e-01 3.869266204985e-33 
5.000000000000e-01 -9.706566622964e-34 
6.000000000000e-01 2.280034164209e-34 
7.000000000000e-01 -1.125484101211e-34 
8.000000000000e-01 3.287635636596e-34 
9.000000000000e-01 -1.701684683752e-33 
1.000000000000e+00 -1.349748010703e-32 
1.100000000000e+00 -1.157678811251e-32 
1.200000000000e+00 1.150786320286e-33 
1.300000000000e+00 -7.961742076283e-34 
1.400000000000e+00 1.446417130460e-34 
1.500000000000e+00 -1.332485836545e-34 
1.600000000000e+00 3.241684376815e-34 
1.700000000000e+00 -1.409615445080e-33 
1.800000000000e+00 5.866200360841e-33 
1.900000000000e+00 -2.331143467399e-32 
2.000000000000e+00 8.789322822501e-32 
2.100000000000e+00 -3.107089341115e-31 
2.200000000000e+00 9.872714306834e-31 
2.300000000000e+00 -3.380849894472e-30 
2.400000000000e+00 -2.918933154954e-30 
2.500000000000e+00 -1.581709668093e-31 
2.600000000000e+00 1.964398494450e-32 
2.700000000000e+00 -2.888243236808e-33 
2.800000000000e+00 5.761890454050e-34 
2.900000000000e+00 -1.324346762989e-34 
3.000000000000e+00 2.941624335554e-35 
3.100000000000e+00 3.589555772870e-36 
3.200000000000e+00 -4.707849488925e-35 
3.300000000000e+00 2.049714355646e-34 
3.400000000000e+00 -8.254175857020e-34 
3.500000000000e+00 3.178345756461e-33 
3.600000000000e+00 -1.174386863771e-32 
3.700000000000e+00 4.139143419494e-32 
3.800000000000e+00 -1.345920429907e-31 
3.900000000000e+00 3.212721974810e-31 
4.000000000000e+00 0.000000000000e+00 
 ZONE T="TIME=1.296000000000e+05"
0.000000000000e+00 0.000000000000e+00 
1.000000000000e-01 -1.088753937656e-31 