 TITLE = "Profiles along polylines"
 VARIABLES = "DIST" "CONCENTRATION1" 
 ZONE T="TIME=0.000000000000e+00"
0.000000000000e+00 0.000000000000e+00 
1.000000000000e-01 0.000000000000e+00 
2.000000000000e-01 0.000000000000e+00 
3.000000000000e-01 0.000000000000e+00 
4.000000000000e-01 0.000000000000e+00 
5.000000000000e-01 0.000000000000e+00 
6.000000000000e-01 0.000000000000e+00 
7.000000000000e-01 0.000000000000e+00 
8.000000000000e-01 0.000000000000e+00 
9.000000000000e-01 0.000000000000e+00 
1.000000000000e+00 0.000000000000e+00 
1.100000000000e+00 0.000000000000e+00 
1.200000000000e+00 0.000000000000e+00 
1.300000000000e+00 0.000000000000e+00 
1.400000000000e+00 0.000000000000e+00 
1.500000000000e+00 0.000000000000e+00 
1.600000000000e+00 0.000000000000e+00 
1.700000000000e+00 0.000000000000e+00 
1.800000000000e+00 0.000000000000e+00 
1.900000000000e+00 0.000000000000e+00 
2.000000000000e+00 0.000000000000e+00 
2.100000000000e+00 0.000000000000e+00 
2.200000000000e+00 0.000000000000e+00 
2.300000000000e+00 0.000000000000e+00 
2.400000000000e+00 0.000000000000e+00 
2.500000000000e+00 0.000000000000e+00 
2.600000000000e+00 0.000000000000e+00 
2.700000000000e+00 0.000000000000e+00 
2.800000000000e+00 0.000000000000e+00 
2.900000000000e+00 0.000000000000e+00 
3.000000000000e+00 0.000000000000e+00 
3.100000000000e+00 0.000000000000e+00 
3.200000000000e+00 0.000000000000e+00 
3.300000000000e+00 0.000000000000e+00 
3.400000000000e+00 0.000000000000e+00 
3.500000000000e+00 0.000000000000e+00 
3.600000000000e+00 0.000000000000e+00 
3.700000000000e+00 0.000000000000e+00 
3.800000000000e+00 0.000000000000e+00 
3.900000000000e+00 0.000000000000e+00 
4.000000000000e+00 0.000000000000e+00 
 TITLE = "Profiles along polylines"
 VARIABLES = "DIST" "CONCENTRATION1" 
 ZONE T="TIME=7.200000000000e+03"
0.000000000000e+00 0.000000000000e+00 
1.000000000000e-01 -3.158430559011e-11 
2.000000000000e-01 6.453367050958e-11 
3.000000000000e-01 -2.738623131573e-10 
4.000000000000e-01 -3.386898037506e-10 
5.000000000000e-01 -8.397575689433e-11 
6.000000000000e-01 1.197647902791e-11 
7.000000000000e-01 -1.618254301105e-12 
8.000000000000e-01 2.429404849120e-13 
9.000000000000e-01 -3.973590347666e-14 
1.000000000000e+00 6.801775346699e-15 
1.100000000000e+00 -1.191309414384e-15 
1.200000000000e+00 2.113937422483e-16 
1.300000000000e+00 -3.760276798988e-17 
1.400000000000e+00 5.683875191638e-18 
1.500000000000e+00 2.689830957929e-18 
1.600000000000e+00 -1.273386996886e-17 
1.700000000000e+00 4.280116031071e-17 
1.800000000000e+00 -1.432932188020e-16 
1.900000000000e+00 4.908000703788e-16 
2.000000000000e+00 -1.787037538682e-15 
2.100000000000e+00 8.359082802706e-15 
2.200000000000e+00 1.518763523140e-14 
2.300000000000e+00 1.657160103145e-15 
2.400000000000e+00 -1.648545909190e-16 
2.500000000000e+00 1.988501322135e-17 
2.600000000000e+00 -2.690350731051e-18 
2.700000000000e+00 3.821184510134e-19 
2.800000000000e+00 -5.489015532484e-20 
2.900000000000e+00 7.867954136607e-21 
3.000000000000e+00 -1.171536400744e-21 
3.100000000000e+00 2.051359898397e-22 
3.200000000000e+00 -4.397670665712e-23 
3.300000000000e+00 1.064167798624e-23 
3.400000000000e+00 -2.723957019169e-24 
3.500000000000e+00 7.121723517261e-25 
3.600000000000e+00 -1.868026131669e-25 
3.700000000000e+00 4.870450397911e-26 
3.800000000000e+00 -1.251907582306e-26 
3.900000000000e+00 2.999046096684e-27 
4.000000000000e+00 0.000000000000e+00 
 ZONE T="TIME=1.440000000000e+04"
0.000000000000e+00 0.000000000000e+00 
1.000000000000e-01 1.715859533552e-10 
2.000000000000e-01 -1.021395030663e-09 
3.000000000000e-01 -1.672845331519e-10 
4.000000000000e-01 -6.672613212813e-10 
5.000000000000e-01 -1.680959272848e-09 
6.000000000000e-01 2.192455829916e-10 
7.000000000000e-01 -2.532492374234e-11 
8.000000000000e-01 3.123312462272e-12 
9.000000000000e-01 -4.139436132794e-13 
1.000000000000e+00 5.677989993801e-14 
1.100000000000e+00 -7.873088307170e-15 
1.200000000000e+00 1.099893733274e-15 
1.300000000000e+00 -1.481926894600e-16 
1.400000000000e+00 -9.927279981813e-18 
1.500000000000e+00 1.057102423924e-16 
1.600000000000e+00 -3.566208131766e-16 
1.700000000000e+00 1.175489170359e-15 
1.800000000000e+00 -3.917615769073e-15 
1.900000000000e+00 1.337365863786e-14 
2.000000000000e+00 -4.856363296653e-14 
2.100000000000e+00 2.272733935490e-13 
2.200000000000e+00 4.150809998413e-13 
2.300000000000e+00 5.051481169336e-14 
2.400000000000e+00 -4.661636027088e-15 
2.500000000000e+00 5.275978935400e-16 
2.600000000000e+00 -6.719736301825e-17 
2.700000000000e+00 8.922392744756e-18 
2.800000000000e+00 -1.171522811673e-18 
2.900000000000e+00 1.458114720770e-19 
3.000000000000e+00 -1.739690760634e-20 
3.100000000000e+00 2.438846089629e-21 
3.200000000000e+00 -4.666810727209e-22 
3.300000000000e+00 1.076952375606e-22 
3.400000000000e+00 -2.697576410608e-23 
3.500000000000e+00 6.975784933674e-24 
3.600000000000e+00 -1.817246637070e-24 
3.700000000000e+00 4.710798092682e-25 
3.800000000000e+00 -1.203433567994e-25 
3.900000000000e+00 2.863884755273e-26 
4.000000000000e+00 0.000000000000e+00 
 ZONE T="TIME=2.160000000000e+04"
0.000000000000e+00 0.000000000000e+00 
1.000000000000e-01 3.973355001586e-09 
2.000000000000e-01 -1.458210796368e-08 
3.000000000000e-01 5.132859952586e-09 
4.000000000000e-01 4.041359216095e-08 
5.000000000000e-01 1.161993686487e-08 
6.000000000000e-01 -1.152899154549e-09 
7.000000000000e-01 1.424267148468e-10 
8.000000000000e-01 -2.224516273885e-11 
9.000000000000e-01 3.860186023782e-12 
1.000000000000e+00 -6.890223479732e-13 
1.100000000000e+00 1.223634611864e-13 
1.200000000000e+00 -2.133803207379e-14 
1.300000000000e+00 3.762652755279e-15 
1.400000000000e+00 -1.062654177202e-15 
1.500000000000e+00 1.579302814067e-15 
1.600000000000e+00 -4.821995338919e-15 
1.700000000000e+00 1.574823611821e-14 
1.800000000000e+00 -5.226269159855e-14 
1.900000000000e+00 1.778148403388e-13 
2.000000000000e+00 -6.448137979088e-13 
2.100000000000e+00 3.044167066745e-12 
2.200000000000e+00 5.583491800985e-12 
2.300000000000e+00 7.287217766703e-13 
2.400000000000e+00 -6.218352121653e-14 
2.500000000000e+00 6.559412918000e-15 
2.600000000000e+00 -7.806663834721e-16 
2.700000000000e+00 9.603861903359e-17 
2.800000000000e+00 -1.135531630663e-17 
2.900000000000e+00 1.176305066332e-18 
3.000000000000e+00 -9.532546309432e-20 
3.100000000000e+00 7.157581525568e-21 
3.200000000000e+00 -8.660069519106e-22 
3.300000000000e+00 1.557409859732e-22 
3.400000000000e+00 -3.354200759339e-23 
3.500000000000e+00 7.933380084029e-24 
3.600000000000e+00 -1.945445989854e-24 
3.700000000000e+00 4.775734894806e-25 
3.800000000000e+00 -1.146122281205e-25 
3.900000000000e+00 2.536791698778e-26 
4.000000000000e+00 0.000000000000e+00 
 ZONE T="TIME=2.880000000000e+04"
0.000000000000e+00 0.000000000000e+00 
1.000000000000e-01 2.805168586286e-08 
2.000000000000e-01 -9.593129485093e-08 
3.000000000000e-01 3.425020810635e-08 
4.000000000000e-01 3.578825928204e-07 
5.000000000000e-01 1.742716798268e-07 
6.000000000000e-01 -2.451978975687e-08 
7.000000000000e-01 3.669060479331e-09 
8.000000000000e-01 -6.231287195991e-10 
9.000000000000e-01 1.133460737474e-10 
1.000000000000e+00 -2.115276943874e-11 
1.100000000000e+00 3.969760113067e-12 
1.200000000000e+00 -7.421387822356e-13 
1.300000000000e+00 1.388270710681e-13 
1.400000000000e+00 -2.947035530914e-14 
1.500000000000e+00 1.784634581754e-14 
1.600000000000e+00 -4.342453268597e-14 
1.700000000000e+00 1.389474269001e-13 
1.800000000000e+00 -4.587709508635e-13 
1.900000000000e+00 1.556589658187e-12 
2.000000000000e+00 -5.658161367711e-12 
2.100000000000e+00 2.730850044992e-11 
2.200000000000e+00 5.021431335529e-11 
2.300000000000e+00 6.698204520045e-12 
2.400000000000e+00 -5.483553903328e-13 
2.500000000000e+00 5.575776883486e-14 
2.600000000000e+00 -6.453450972177e-15 
2.700000000000e+00 7.808675712414e-16 
2.800000000000e+00 -9.298637360128e-17 
2.900000000000e+00 1.042899178993e-17 
3.000000000000e+00 -1.182082916529e-18 
3.100000000000e+00 1.989303117409e-19 
3.200000000000e+00 -4.854995502498e-20 
3.300000000000e+00 1.272573728422e-20 
3.400000000000e+00 -3.374347677583e-21 
3.500000000000e+00 8.968320722947e-22 
3.600000000000e+00 -2.372391477412e-22 
3.700000000000e+00 6.215344213883e-23 
3.800000000000e+00 -1.602602400146e-23 
3.900000000000e+00 3.848390508889e-24 
4.000000000000e+00 0.000000000000e+00 
 ZONE T="TIME=3.600000000000e+04"
0.000000000000e+00 0.000000000000e+00 
1.000000000000e-01 1.665050141902e-07 
2.000000000000e-01 -5.534176912024e-07 
3.000000000000e-01 3.371694432153e-07 
4.000000000000e-01 2.005768510400e-06 
5.000000000000e-01 8.598977427009e-07 
6.000000000000e-01 -1.029636422535e-07 
7.000000000000e-01 1.246284185682e-08 
8.000000000000e-01 -1.750628972627e-09 
9.000000000000e-01 2.711203414839e-10 
1.000000000000e+00 -4.338186513623e-11 
1.100000000000e+00 6.880150610535e-12 
1.200000000000e+00 -1.044159285696e-12 
1.300000000000e+00 1.518771835353e-13 
1.400000000000e+00 -4.411046616318e-14 
1.500000000000e+00 9.045160839628e-14 
1.600000000000e+00 -2.877829518168e-13 
1.700000000000e+00 9.348583836711e-13 
1.800000000000e+00 -3.077450780718e-12 
1.900000000000e+00 1.040654477428e-11 
2.000000000000e+00 -3.778979300626e-11 
2.100000000000e+00 1.846232069107e-10 
2.200000000000e+00 3.419793065292e-10 
2.300000000000e+00 4.843753568794e-11 
2.400000000000e+00 -3.626373366008e-12 
2.500000000000e+00 3.369245895562e-13 
2.600000000000e+00 -3.539550447264e-14 
2.700000000000e+00 3.787009712853e-15 
2.800000000000e+00 -3.707017710921e-16 
2.900000000000e+00 2.711844096098e-17 
3.000000000000e+00 -7.829475137698e-19 
3.100000000000e+00 8.586495590820e-20 
3.200000000000e+00 -6.920491726403e-20 
3.300000000000e+00 2.407583812045e-20 
3.400000000000e+00 -6.927736319928e-21 
3.500000000000e+00 1.895849460698e-21 
3.600000000000e+00 -5.064694482436e-22 
3.700000000000e+00 1.325696882534e-22 
3.800000000000e+00 -3.388372681836e-23 
3.900000000000e+00 8.029153283616e-24 
4.000000000000e+00 0.000000000000e+00 
 ZONE T="TIME=4.320000000000e+04"
0.000000000000e+00 0.000000000000e+00 
1.000000000000e-01 6.002455913869e-07 
2.000000000000e-01 -2.061593872687e-06 
3.000000000000e-01 1.227526609512e-06 
4.000000000000e-01 7.520040839067e-06 
5.000000000000e-01 4.693647863678e-06 
6.000000000000e-01 -5.529354877104e-07 
7.000000000000e-01 6.546669193997e-08 
8.000000000000e-01 -9.173701183127e-09 
9.000000000000e-01 1.464378935696e-09 
1.000000000000e+00 -2.499790230184e-10 
1.100000000000e+00 4.398217181565e-11 
1.200000000000e+00 -7.811617325285e-12 
1.300000000000e+00 1.425805082543e-12 
1.400000000000e+00 -4.040727197017e-13 
1.500000000000e+00 5.622883669790e-13 
1.600000000000e+00 -1.674018485978e-12 
1.700000000000e+00 5.391997151368e-12 
1.800000000000e+00 -1.768069066388e-11 
1.900000000000e+00 5.955553231269e-11 
2.000000000000e+00 -2.150268305292e-10 
2.100000000000e+00 1.042573093487e-09 
2.200000000000e+00 1.936278238063e-09 
2.300000000000e+00 3.128669649396e-10 
2.400000000000e+00 -2.126833342984e-11 
2.500000000000e+00 1.807014309418e-12 
2.600000000000e+00 -1.741284185063e-13 
2.700000000000e+00 1.699982766988e-14 
2.800000000000e+00 -1.524119183854e-15 
2.900000000000e+00 1.279588631831e-16 
3.000000000000e+00 -2.485856289644e-17 
3.100000000000e+00 1.102900001184e-17 
3.200000000000e+00 -3.889852362671e-18 
3.300000000000e+00 1.148501419222e-18 
3.400000000000e+00 -3.190935744929e-19 
3.500000000000e+00 8.659262089289e-20 
3.600000000000e+00 -2.314642997312e-20 
3.700000000000e+00 6.100367319307e-21 
3.800000000000e+00 -1.579359924027e-21 
3.900000000000e+00 3.804989506419e-22 
4.000000000000e+00 0.000000000000e+00 
 ZONE T="TIME=5.040000000000e+04"
0.000000000000e+00 0.000000000000e+00 
1.000000000000e-01 2.013708973343e-06 
2.000000000000e-01 -7.152660850065e-06 
3.000000000000e-01 4.841506652833e-06 
4.000000000000e-01 2.353756080526e-05 
5.000000000000e-01 1.256823526358e-05 
6.000000000000e-01 -1.090852704260e-06 
7.000000000000e-01 6.216851316421e-08 
8.000000000000e-01 1.982239431184e-10 
9.000000000000e-01 -1.108038613268e-09 
1.000000000000e+00 3.245873552480e-10 
1.100000000000e+00 -7.588114103625e-11 
1.200000000000e+00 1.648336271094e-11 
1.300000000000e+00 -3.305808034395e-12 
1.400000000000e+00 9.236915444327e-15 
1.500000000000e+00 2.193555595443e-12 
1.600000000000e+00 -7.453879218120e-12 
1.700000000000e+00 2.404801202667e-11 
1.800000000000e+00 -7.839544374826e-11 
1.900000000000e+00 2.627051904938e-10 
2.000000000000e+00 -9.471252916602e-10 
2.100000000000e+00 4.665988719512e-09 
2.200000000000e+00 8.715504572067e-09 
2.300000000000e+00 1.499173626276e-09 
2.400000000000e+00 -8.618124860373e-11 
2.500000000000e+00 5.668018072534e-12 
2.600000000000e+00 -3.440431787894e-13 
2.700000000000e+00 3.390001462865e-15 
2.800000000000e+00 5.000962968006e-15 
2.900000000000e+00 -1.337107577844e-15 
3.000000000000e+00 2.050936810822e-16 
3.100000000000e+00 -8.971660580892e-18 
3.200000000000e+00 -4.404337763025e-18 
3.300000000000e+00 1.859900850711e-18 
3.400000000000e+00 -5.662154058489e-19 
3.500000000000e+00 1.589572177738e-19 
3.600000000000e+00 -4.302265181628e-20 
3.700000000000e+00 1.134209367644e-20 
3.800000000000e+00 -2.911172127517e-21 
3.900000000000e+00 6.918012316697e-22 
4.000000000000e+00 0.000000000000e+00 
 ZONE T="TIME=5.760000000000e+04"
0.000000000000e+00 0.000000000000e+00 
1.000000000000e-01 5.293245028622e-06 
2.000000000000e-01 -1.975161380594e-05 
3.000000000000e-01 1.242975632530e-05 
4.000000000000e-01 5.993699823503e-05 
5.000000000000e-01 3.078273943704e-05 
6.000000000000e-01 -2.080521990138e-06 
7.000000000000e-01 1.211310796960e-08 
8.000000000000e-01 2.350224590127e-08 
9.000000000000e-01 -5.710550310342e-09 
1.000000000000e+00 1.038033622893e-09 
1.100000000000e+00 -1.629618961815e-10 
1.200000000000e+00 2.224706468172e-11 
1.300000000000e+00 -1.748871323759e-12 
1.400000000000e+00 -2.685148889034e-12 
1.500000000000e+00 9.169991138200e-12 
1.600000000000e+00 -2.899668624927e-11 
1.700000000000e+00 9.257770737339e-11 
1.800000000000e+00 -3.000290592903e-10 
1.900000000000e+00 1.000659049791e-09 
2.000000000000e+00 -3.600109590332e-09 
2.100000000000e+00 1.795999768435e-08 
2.200000000000e+00 3.384044606288e-08 
2.300000000000e+00 6.223006011943e-09 
2.400000000000e+00 -3.018417189639e-10 
2.500000000000e+00 1.428419728526e-11 
2.600000000000e+00 -1.561886801263e-13 
2.700000000000e+00 -1.458624700646e-13 
2.800000000000e+00 3.817557559920e-14 
2.900000000000e+00 -6.805491667960e-15 
3.000000000000e+00 7.644081967218e-16 
3.100000000000e+00 2.544426096966e-17 
3.200000000000e+00 -3.572514005614e-17 
3.300000000000e+00 1.199883938714e-17 
3.400000000000e+00 -3.420035878089e-18 
3.500000000000e+00 9.349374294333e-19 
3.600000000000e+00 -2.503242860554e-19 
3.700000000000e+00 6.584370546785e-20 
3.800000000000e+00 -1.695930280535e-20 
3.900000000000e+00 4.057187521139e-21 
4.000000000000e+00 0.000000000000e+00 
 ZONE T="TIME=6.480000000000e+04"
0.000000000000e+00 0.000000000000e+00 
1.000000000000e-01 1.147192893386e-05 
2.000000000000e-01 -4.599358853338e-05 
3.000000000000e-01 2.439089872762e-05 
4.000000000000e-01 1.285627880296e-04 
5.000000000000e-01 6.723162240211e-05 
6.000000000000e-01 -3.366496196082e-06 
7.000000000000e-01 -2.355201517938e-07 
8.000000000000e-01 9.045479539362e-08 
9.000000000000e-01 -1.685476698061e-08 
1.000000000000e+00 2.498309802455e-09 
1.100000000000e+00 -2.981498955760e-10 
1.200000000000e+00 2.283450989291e-11 
1.300000000000e+00 3.706467794414e-12 
1.400000000000e+00 -1.084228283944e-11 
1.500000000000e+00 3.176951267463e-11 
1.600000000000e+00 -9.923396793195e-11 
1.700000000000e+00 3.148999865388e-10 
1.800000000000e+00 -1.014865937202e-09 
1.900000000000e+00 3.368621791430e-09 
2.000000000000e+00 -1.209017544789e-08 
2.100000000000e+00 6.102483952753e-08 
2.200000000000e+00 1.160415361463e-07 
2.300000000000e+00 2.282619488553e-08 
2.400000000000e+00 -9.042878184695e-10 
2.500000000000e+00 2.084490746752e-11 
2.600000000000e+00 3.470538907913e-12 
2.700000000000e+00 -1.000386964985e-12 
2.800000000000e+00 1.835632328475e-13 
2.900000000000e+00 -2.648462872457e-14 
3.000000000000e+00 2.053452414868e-15 
3.100000000000e+00 3.767372499677e-16 
3.200000000000e+00 -2.001524145289e-16 
3.300000000000e+00 5.991704565984e-17 
3.400000000000e+00 -1.638328693468e-17 
3.500000000000e+00 4.394640027657e-18 
3.600000000000e+00 -1.164957925286e-18 
3.700000000000e+00 3.045450423541e-19 
3.800000000000e+00 -7.807881341447e-20 
3.900000000000e+00 1.860278940637e-20 
4.000000000000e+00 0.000000000000e+00 
 ZONE T="TIME=7.200000000000e+04"
0.000000000000e+00 0.000000000000e+00 
1.000000000000e-01 2.128440239094e-05 
2.000000000000e-01 -9.377400586145e-05 
3.000000000000e-01 3.761011678323e-05 
4.000000000000e-01 2.391046572413e-04 
5.000000000000e-01 1.308492865975e-04 
6.000000000000e-01 -4.182070218617e-06 
7.000000000000e-01 -9.619812662550e-07 
8.000000000000e-01 2.446483453733e-07 
9.000000000000e-01 -3.901733406315e-08 
1.000000000000e+00 4.829456038792e-09 
1.100000000000e+00 -3.962201096280e-10 
1.200000000000e+00 -1.076595814392e-11 
1.300000000000e+00 2.187578494744e-11 
1.400000000000e+00 -3.453335114808e-11 
1.500000000000e+00 9.802998220506e-11 
1.600000000000e+00 -3.043258677552e-10 
1.700000000000e+00 9.598053862259e-10 
1.800000000000e+00 -3.075069336880e-09 
1.900000000000e+00 1.015500238858e-08 
2.000000000000e+00 -3.635040311492e-08 
2.100000000000e+00 1.857344527980e-07 
2.200000000000e+00 3.564873350025e-07 
2.300000000000e+00 7.501218279104e-08 
2.400000000000e+00 -2.286478276706e-09 
2.500000000000e+00 -3.153577418586e-11 
2.600000000000e+00 2.311903849361e-11 
2.700000000000e+00 -4.443282907645e-12 
2.800000000000e+00 6.709446258783e-13 
2.900000000000e+00 -7.757813387916e-14 
3.000000000000e+00 1.476187243397e-15 
3.100000000000e+00 2.734087438728e-15 
3.200000000000e+00 -1.006049265205e-15 
3.300000000000e+00 2.776841607330e-16 
3.400000000000e+00 -7.362009896514e-17 
3.500000000000e+00 1.946580492103e-17 
3.600000000000e+00 -5.119795693941e-18 
3.700000000000e+00 1.331563419582e-18 
3.800000000000e+00 -3.399576822017e-19 
3.900000000000e+00 8.068376713096e-20 
4.000000000000e+00 0.000000000000e+00 
 ZONE T="TIME=7.920000000000e+04"
0.000000000000e+00 0.000000000000e+00 
1.000000000000e-01 3.466204956670e-05 
2.000000000000e-01 -1.713501671909e-04 
3.000000000000e-01 4.227280077324e-05 
4.000000000000e-01 3.931548304076e-04 
5.000000000000e-01 2.291198776561e-04 
6.000000000000e-01 -2.866064754689e-06 
7.000000000000e-01 -2.565906709277e-06 
8.000000000000e-01 5.301717677752e-07 
9.000000000000e-01 -7.278677845520e-08 
1.000000000000e+00 6.871835696529e-09 
1.100000000000e+00 -7.937851242517e-11 
1.200000000000e+00 -1.625383407367e-10 
1.300000000000e+00 7.392416431355e-11 
1.400000000000e+00 -9.748283767960e-11 
1.500000000000e+00 2.741506169217e-10 
1.600000000000e+00 -8.459572951129e-10 
1.700000000000e+00 2.650423242974e-09 
1.800000000000e+00 -8.437787214247e-09 
1.900000000000e+00 2.771145410941e-08 
2.000000000000e+00 -9.890736676766e-08 
2.100000000000e+00 5.120878861479e-07 
2.200000000000e+00 9.923637392793e-07 
2.300000000000e+00 2.233419268139e-07 
2.400000000000e+00 -4.680272055156e-09 
2.500000000000e+00 -3.825254320272e-10 
2.600000000000e+00 9.874856909057e-11 
2.700000000000e+00 -1.546192046027e-11 
2.800000000000e+00 1.956496832138e-12 
2.900000000000e+00 -1.573471787568e-13 
3.000000000000e+00 -1.973084460838e-14 
3.100000000000e+00 1.417809583637e-14 
3.200000000000e+00 -4.346014335736e-15 
3.300000000000e+00 1.136556914566e-15 
3.400000000000e+00 -2.948555561303e-16 
3.500000000000e+00 7.715491239209e-17 
3.600000000000e+00 -2.017175648675e-17 
3.700000000000e+00 5.223591642490e-18 
3.800000000000e+00 -1.328307778814e-18 
3.900000000000e+00 3.139986828180e-19 
4.000000000000e+00 0.000000000000e+00 
 ZONE T="TIME=8.640000000000e+04"
0.000000000000e+00 0.000000000000e+00 
1.000000000000e-01 5.473188290609e-05 
2.000000000000e-01 -2.966443068989e-04 
3.000000000000e-01 3.580283320198e-05 
4.000000000000e-01 5.933719742583e-04 
5.000000000000e-01 3.289125435089e-04 
6.000000000000e-01 5.904468199210e-06 
7.000000000000e-01 -5.709107707712e-06 
8.000000000000e-01 9.881384499818e-07 
9.000000000000e-01 -1.119522349281e-07 
1.000000000000e+00 5.625717021522e-09 
1.100000000000e+00 1.370388780303e-09 
1.200000000000e+00 -5.618895305328e-10 
1.300000000000e+00 1.865050693067e-10 
1.400000000000e+00 -2.301876027225e-10 
1.500000000000e+00 6.429230017313e-10 
1.600000000000e+00 -1.959154940778e-09 
1.700000000000e+00 6.056913896977e-09 
1.800000000000e+00 -1.904490776791e-08 
1.900000000000e+00 6.201440995595e-08 
2.000000000000e+00 -2.227806670583e-07 
2.100000000000e+00 1.220079425248e-06 
2.200000000000e+00 2.391841841371e-06 
2.300000000000e+00 5.665284064577e-07 
2.400000000000e+00 -7.565691072681e-09 
2.500000000000e+00 -1.345117782822e-09 
2.600000000000e+00 2.351191839829e-10 
2.700000000000e+00 -2.405435151430e-11 
2.800000000000e+00 2.140501706317e-13 
2.900000000000e+00 8.576215418177e-13 
3.000000000000e+00 -3.753303938412e-13 
3.100000000000e+00 1.209841078163e-13 
3.200000000000e+00 -3.328794542151e-14 
3.300000000000e+00 8.751804061233e-15 
3.400000000000e+00 -2.306761862739e-15 
3.500000000000e+00 6.101994723440e-16 
3.600000000000e+00 -1.607593476969e-16 
3.700000000000e+00 4.192440241158e-17 
3.800000000000e+00 -1.074735423323e-17 
3.900000000000e+00 2.563619035605e-18 
4.000000000000e+00 0.000000000000e+00 
 ZONE T="TIME=9.360000000000e+04"
0.000000000000e+00 0.000000000000e+00 
1.000000000000e-01 7.702888626478e-05 
2.000000000000e-01 -4.585896983203e-04 
3.000000000000e-01 -4.201483411763e-05 
4.000000000000e-01 8.195680431039e-04 
5.000000000000e-01 4.873688627969e-04 
6.000000000000e-01 1.603670334095e-05 
7.000000000000e-01 -9.047880508626e-06 
8.000000000000e-01 1.270708913000e-06 
9.000000000000e-01 -7.616583329280e-08 
1.000000000000e+00 -1.527951556784e-08 
1.100000000000e+00 6.914125423335e-09 
1.200000000000e+00 -1.688158277769e-09 
1.300000000000e+00 4.501040661751e-10 
1.400000000000e+00 -5.154442242970e-10 
1.500000000000e+00 1.428712622228e-09 
1.600000000000e+00 -4.317590304914e-09 
1.700000000000e+00 1.323687597691e-08 
1.800000000000e+00 -4.130403474228e-08 
1.900000000000e+00 1.337359490107e-07 
2.000000000000e+00 -4.811671957066e-07 
2.100000000000e+00 2.727483053376e-06 
2.200000000000e+00 5.445601731056e-06 
2.300000000000e+00 1.368770195858e-06 
2.400000000000e+00 -6.067930822063e-09 
2.500000000000e+00 -4.464595463707e-09 
2.600000000000e+00 6.178048427786e-10 
2.700000000000e+00 -4.781797922036e-11 
2.800000000000e+00 -3.398059067881e-12 
2.900000000000e+00 3.004217204411e-12 
3.000000000000e+00 -1.104517415536e-12 
3.100000000000e+00 3.318563268887e-13 
3.200000000000e+00 -8.792116618900e-14 
3.300000000000e+00 2.261185697917e-14 
3.400000000000e+00 -5.886818246359e-15 
3.500000000000e+00 1.545309023726e-15 
3.600000000000e+00 -4.043518421742e-16 
3.700000000000e+00 1.045676718516e-16 
3.800000000000e+00 -2.650082764220e-17 
3.900000000000e+00 6.235427107089e-18 
4.000000000000e+00 0.000000000000e+00 
 ZONE T="TIME=1.008000000000e+05"
0.000000000000e+00 0.000000000000e+00 
1.000000000000e-01 1.004578958355e-04 
2.000000000000e-01 -6.481657639836e-04 
3.000000000000e-01 -2.272944710218e-04 
4.000000000000e-01 1.030479283846e-03 
5.000000000000e-01 6.931872958324e-04 
6.000000000000e-01 3.457720886504e-05 
7.000000000000e-01 -1.397241124091e-05 
8.000000000000e-01 1.627948707802e-06 
9.000000000000e-01 -2.039783731317e-08 
1.000000000000e+00 -4.133231543720e-08 
1.100000000000e+00 1.256319250197e-08 
1.200000000000e+00 -2.508050748387e-09 
1.300000000000e+00 6.557739659789e-10 
1.400000000000e+00 -1.029097736343e-09 
1.500000000000e+00 3.006984279246e-09 
1.600000000000e+00 -9.058675864069e-09 
1.700000000000e+00 2.758333307426e-08 
1.800000000000e+00 -8.551056683359e-08 
1.900000000000e+00 2.754127977229e-07 
2.000000000000e+00 -9.900329885640e-07 
2.100000000000e+00 5.751880807490e-06 
2.200000000000e+00 1.170599134252e-05 
2.300000000000e+00 3.133265488651e-06 
2.400000000000e+00 1.700252810514e-08 
2.500000000000e+00 -1.318578814162e-08 
2.600000000000e+00 1.539957189326e-09 
2.700000000000e+00 -8.984380676810e-11 
2.800000000000e+00 -1.512163993693e-11 
2.900000000000e+00 8.457400711337e-12 
3.000000000000e+00 -2.803794474255e-12 
3.100000000000e+00 7.944287573469e-13 
3.200000000000e+00 -2.017909840229e-13 
3.300000000000e+00 5.044925938675e-14 
3.400000000000e+00 -1.291970982885e-14 
3.500000000000e+00 3.358343901886e-15 
3.600000000000e+00 -8.722079073228e-16 
3.700000000000e+00 2.237965859583e-16 
3.800000000000e+00 -5.616524282130e-17 
3.900000000000e+00 1.306525714074e-17 
4.000000000000e+00 0.000000000000e+00 
 ZONE T="TIME=1.080000000000e+05"
0.000000000000e+00 0.000000000000e+00 
1.000000000000e-01 1.282498341639e-04 
2.000000000000e-01 -8.525113648738e-04 
3.000000000000e-01 -5.351150394987e-04 
4.000000000000e-01 1.177334527403e-03 
5.000000000000e-01 9.240349025109e-04 
6.000000000000e-01 6.740342353907e-05 
7.000000000000e-01 -2.087751173413e-05 
8.000000000000e-01 2.004319641237e-06 
9.000000000000e-01 7.918198489510e-08 
1.000000000000e+00 -7.751746554748e-08 
1.100000000000e+00 1.916721454135e-08 
1.200000000000e+00 -3.215556724608e-09 
1.300000000000e+00 9.345085054948e-10 
1.400000000000e+00 -2.013269372590e-09 
1.500000000000e+00 6.020611710052e-09 
1.600000000000e+00 -1.802216291519e-08 
1.700000000000e+00 5.446694641367e-08 
1.800000000000e+00 -1.676523250116e-07 
1.900000000000e+00 5.367020654985e-07 
2.000000000000e+00 -1.924864090232e-06 
2.100000000000e+00 1.143183502854e-05 
2.200000000000e+00 2.370762849096e-05 
2.300000000000e+00 6.776913020529e-06 
2.400000000000e+00 1.105174577196e-07 
2.500000000000e+00 -3.513538569596e-08 
2.600000000000e+00 3.533609731475e-09 
2.700000000000e+00 -1.350083832324e-10 
2.800000000000e+00 -5.113292747848e-11 
2.900000000000e+00 2.199589571661e-11 
3.000000000000e+00 -6.674010204346e-12 
3.100000000000e+00 1.785314431395e-12 
3.200000000000e+00 -4.331559641873e-13 
3.300000000000e+00 1.048275408540e-13 
3.400000000000e+00 -2.633534277592e-14 
3.500000000000e+00 6.769021186702e-15 
3.600000000000e+00 -1.744002999078e-15 
3.700000000000e+00 4.440927368385e-16 
3.800000000000e+00 -1.104627404586e-16 
3.900000000000e+00 2.543532183213e-17 
4.000000000000e+00 0.000000000000e+00 
 ZONE T="TIME=1.152000000000e+05"
0.000000000000e+00 0.000000000000e+00 
1.000000000000e-01 1.691378393395e-04 
2.000000000000e-01 -1.053842793966e-03 
3.000000000000e-01 -9.532987756956e-04 
4.000000000000e-01 1.219705295359e-03 
5.000000000000e-01 1.150946294140e-03 
6.000000000000e-01 1.186595922473e-04 
7.000000000000e-01 -2.917973813448e-05 
8.000000000000e-01 2.128332391500e-06 
9.000000000000e-01 2.826275527389e-07 
1.000000000000e+00 -1.337608274162e-07 
1.100000000000e+00 2.807035007815e-08 
1.200000000000e+00 -4.026168930590e-09 
1.300000000000e+00 1.446127498576e-09 
1.400000000000e+00 -3.827128436641e-09 
1.500000000000e+00 1.145038868638e-08 
1.600000000000e+00 -3.397996496308e-08 
1.700000000000e+00 1.018301823586e-07 
1.800000000000e+00 -3.109190212564e-07 
1.900000000000e+00 9.883566760555e-07 
2.000000000000e+00 -3.533536936631e-06 
2.100000000000e+00 2.146189656072e-05 
2.200000000000e+00 4.533598684262e-05 
2.300000000000e+00 1.384695145254e-05 
2.400000000000e+00 3.902968474793e-07 
2.500000000000e+00 -8.491173820231e-08 
2.600000000000e+00 7.269734280672e-09 
2.700000000000e+00 -7.545038670826e-11 
2.800000000000e+00 -1.555003747991e-10 
2.900000000000e+00 5.460396897050e-11 
3.000000000000e+00 -1.519712694275e-11 
3.100000000000e+00 3.824939354502e-12 
3.200000000000e+00 -8.811124750283e-13 
3.300000000000e+00 2.051118557639e-13 
3.400000000000e+00 -5.032522303383e-14 
3.500000000000e+00 1.275630509799e-14 
3.600000000000e+00 -3.255117519486e-15 
3.700000000000e+00 8.216935641683e-16 
3.800000000000e+00 -2.023867573277e-16 
3.900000000000e+00 4.608481684200e-17 
4.000000000000e+00 0.000000000000e+00 
 ZONE T="TIME=1.224000000000e+05"
0.000000000000e+00 0.000000000000e+00 
1.000000000000e-01 2.362292763057e-04 
2.000000000000e-01 -1.228431544787e-03 
3.000000000000e-01 -1.442587325752e-03 
4.000000000000e-01 1.137645612825e-03 
5.000000000000e-01 1.345151347575e-03 
6.000000000000e-01 1.902294704236e-04 
7.000000000000e-01 -3.739008754062e-05 
8.000000000000e-01 1.601936827505e-06 
9.000000000000e-01 6.520885196752e-07 
1.000000000000e+00 -2.154165617830e-07 
1.100000000000e+00 3.887484790241e-08 
1.200000000000e+00 -4.716296189771e-09 
1.300000000000e+00 2.307164275983e-09 
1.400000000000e+00 -6.969931804213e-09 
1.500000000000e+00 2.070188599703e-08 
1.600000000000e+00 -6.083856672220e-08 
1.700000000000e+00 1.806261711062e-07 
1.800000000000e+00 -5.465791160571e-07 
1.900000000000e+00 1.723796836146e-06 
2.000000000000e+00 -6.139993811753e-06 
2.100000000000e+00 3.819986147128e-05 
2.200000000000e+00 8.218162230709e-05 
2.300000000000e+00 2.679357261423e-05 
2.400000000000e+00 1.095541633270e-06 
2.500000000000e+00 -1.869266850054e-07 
2.600000000000e+00 1.307585962287e-08 
2.700000000000e+00 4.460238094726e-10 
2.800000000000e+00 -4.299737015459e-10 
2.900000000000e+00 1.282389561614e-10 
3.000000000000e+00 -3.276234065756e-11 
3.100000000000e+00 7.713140209201e-12 
3.200000000000e+00 -1.668621197817e-12 
3.300000000000e+00 3.688762000157e-13 
3.400000000000e+00 -8.751989210153e-14 
3.500000000000e+00 2.173462551441e-14 
3.600000000000e+00 -5.467120007130e-15 
3.700000000000e+00 1.362203957522e-15 
3.800000000000e+00 -3.305858044758e-16 
3.900000000000e+00 7.399959217338e-17 
4.000000000000e+00 0.000000000000e+00 
 ZONE T="TIME=1.296000000000e+05"
0.000000000000e+00 0.000000000000e+00 
1.000000000000e-01 3.433206103381e-04 
2.000000000000e-01 -1.347244420403e-03 