# vtk DataFile Version 3.0
Unstructured Grid from OpenGeoSys
ASCII
DATASET UNSTRUCTURED_GRID
FIELD TimesAndCycles 2
TIME 1 1 double
2.592000000000e+06
CYLCE 1 1 long
360
POINTS 16441 double
-1.000000000000e+00 0.000000000000e+00 -5.000000000000e+00
-9.750000000000e-01 0.000000000000e+00 -5.000000000000e+00
-9.500000000000e-01 0.000000000000e+00 -5.000000000000e+00
-9.250000000000e-01 0.000000000000e+00 -5.000000000000e+00
-9.000000000000e-01 0.000000000000e+00 -5.000000000000e+00
-8.750000000000e-01 0.000000000000e+00 -5.000000000000e+00
-8.500000000000e-01 0.000000000000e+00 -5.000000000000e+00
-8.250000000000e-01 0.000000000000e+00 -5.000000000000e+00
-8.000000000000e-01 0.000000000000e+00 -5.000000000000e+00
-7.750000000000e-01 0.000000000000e+00 -5.000000000000e+00
-7.500000000000e-01 0.000000000000e+00 -5.000000000000e+00
-7.250000000000e-01 0.000000000000e+00 -5.000000000000e+00
-7.000000000000e-01 0.000000000000e+00 -5.000000000000e+00
-6.750000000000e-01 0.000000000000e+00 -5.000000000000e+00
-6.500000000000e-01 0.000000000000e+00 -5.000000000000e+00
-6.250000000000e-01 0.000000000000e+00 -5.000000000000e+00
-6.000000000000e-01 0.000000000000e+00 -5.000000000000e+00
-5.750000000000e-01 0.000000000000e+00 -5.000000000000e+00
-5.500000000000e-01 0.000000000000e+00 -5.000000000000e+00
-5.250000000000e-01 0.000000000000e+00 -5.000000000000e+00
-5.000000000000e-01 0.000000000000e+00 -5.000000000000e+00
-4.750000000000e-01 0.000000000000e+00 -5.000000000000e+00
-4.500000000000e-01 0.000000000000e+00 -5.000000000000e+00
-4.250000000000e-01 0.000000000000e+00 -5.000000000000e+00
-4.000000000000e-01 0.000000000000e+00 -5.000000000000e+00
-3.750000000000e-01 0.000000000000e+00 -5.000000000000e+00
-3.500000000000e-01 0.000000000000e+00 -5.000000000000e+00
-3.250000000000e-01 0.000000000000e+00 -5.000000000000e+00
-3.000000000000e-01 0.000000000000e+00 -5.000000000000e+00
-2.750000000000e-01 0.000000000000e+00 -5.000000000000e+00
-2.500000000000e-01 0.000000000000e+00 -5.000000000000e+00
-2.250000000000e-01 0.000000000000e+00 -5.000000000000e+00
-2.000000000000e-01 0.000000000000e+00 -5.000000000000e+00
-1.750000000000e-01 0.000000000000e+00 -5.000000000000e+00
-1.500000000000e-01 0.000000000000e+00 -5.000000000000e+00
-1.250000000000e-01 0.000000000000e+00 -5.000000000000e+00
-1.000000000000e-01 0.000000000000e+00 -5.000000000000e+00
-7.500000000000e-02 0.000000000000e+00 -5.000000000000e+00
-5.000000000000e-02 0.000000000000e+00 -5.000000000000e+00
-2.500000000000e-02 0.000000000000e+00 -5.000000000000e+00
0.000000000000e+00 0.000000000000e+00 -5.000000000000e+00
2.500000000000e-02 0.000000000000e+00 -5.000000000000e+00
5.000000000000e-02 0.000000000000e+00 -5.000000000000e+00
7.500000000000e-02 0.000000000000e+00 -5.000000000000e+00
1.000000000000e-01 0.000000000000e+00 -5.000000000000e+00
1.250000000000e-01 0.000000000000e+00 -5.000000000000e+00
1.500000000000e-01 0.000000000000e+00 -5.000000000000e+00
1.750000000000e-01 0.000000000000e+00 -5.000000000000e+00
2.000000000000e-01 0.000000000000e+00 -5.000000000000e+00
2.250000000000e-01 0.000000000000e+00 -5.000000000000e+00
2.500000000000e-01 0.000000000000e+00 -5.000000000000e+00
2.750000000000e-01 0.000000000000e+00 -5.000000000000e+00
3.000000000000e-01 0.000000000000e+00 -5.000000000000e+00
3.250000000000e-01 0.000000000000e+00 -5.000000000000e+00
3.500000000000e-01 0.000000000000e+00 -5.000000000000e+00
3.750000000000e-01 0.000000000000e+00 -5.000000000000e+00
4.000000000000e-01 0.000000000000e+00 -5.000000000000e+00
4.250000000000e-01 0.000000000000e+00 -5.000000000000e+00
4.500000000000e-01 0.000000000000e+00 -5.000000000000e+00
4.750000000000e-01 0.000000000000e+00 -5.000000000000e+00
5.000000000000e-01 0.000000000000e+00 -5.000000000000e+00
5.250000000000e-01 0.000000000000e+00 -5.000000000000e+00
5.500000000000e-01 0.000000000000e+00 -5.000000000000e+00
5.750000000000e-01 0.000000000000e+00 -5.000000000000e+00
6.000000000000e-01 0.000000000000e+00 -5.000000000000e+00
6.250000000000e-01 0.000000000000e+00 -5.000000000000e+00
6.500000000000e-01 0.000000000000e+00 -5.000000000000e+00
6.750000000000e-01 0.000000000000e+00 -5.000000000000e+00
7.000000000000e-01 0.000000000000e+00 -5.000000000000e+00
7.250000000000e-01 0.000000000000e+00 -5.000000000000e+00
7.500000000000e-01 0.000000000000e+00 -5.000000000000e+00
7.750000000000e-01 0.000000000000e+00 -5.000000000000e+00
8.000000000000e-01 0.000000000000e+00 -5.000000000000e+00
8.250000000000e-01 0.000000000000e+00 -5.000000000000e+00
8.500000000000e-01 0.000000000000e+00 -5.000000000000e+00
8.750000000000e-01 0.000000000000e+00 -5.000000000000e+00
9.000000000000e-01 0.000000000000e+00 -5.000000000000e+00
9.250000000000e-01 0.000000000000e+00 -5.000000000000e+00
9.500000000000e-01 0.000000000000e+00 -5.000000000000e+00
9.750000000000e-01 0.000000000000e+00 -5.000000000000e+00
1.000000000000e+00 0.000000000000e+00 -5.000000000000e+00
1.025000000000e+00 0.000000000000e+00 -5.000000000000e+00
1.050000000000e+00 0.000000000000e+00 -5.000000000000e+00
1.075000000000e+00 0.000000000000e+00 -5.000000000000e+00
1.100000000000e+00 0.000000000000e+00 -5.000000000000e+00
1.125000000000e+00 0.000000000000e+00 -5.000000000000e+00
1.150000000000e+00 0.000000000000e+00 -5.000000000000e+00
1.175000000000e+00 0.000000000000e+00 -5.000000000000e+00
1.200000000000e+00 0.000000000000e+00 -5.000000000000e+00
1.225000000000e+00 0.000000000000e+00 -5.000000000000e+00
1.250000000000e+00 0.000000000000e+00 -5.000000000000e+00
1.275000000000e+00 0.000000000000e+00 -5.000000000000e+00
1.300000000000e+00 0.000000000000e+00 -5.000000000000e+00
1.325000000000e+00 0.000000000000e+00 -5.000000000000e+00
1.350000000000e+00 0.000000000000e+00 -5.000000000000e+00
1.375000000000e+00 0.000000000000e+00 -5.000000000000e+00
1.400000000000e+00 0.000000000000e+00 -5.000000000000e+00
1.425000000000e+00 0.000000000000e+00 -5.000000000000e+00
1.450000000000e+00 0.000000000000e+00 -5.000000000000e+00
1.475000000000e+00 0.000000000000e+00 -5.000000000000e+00
1.500000000000e+00 0.000000000000e+00 -5.000000000000e+00
1.525000000000e+00 0.000000000000e+00 -5.000000000000e+00
1.550000000000e+00 0.000000000000e+00 -5.000000000000e+00
1.575000000000e+00 0.000000000000e+00 -5.000000000000e+00
1.600000000000e+00 0.000000000000e+00 -5.000000000000e+00
1.625000000000e+00 0.000000000000e+00 -5.000000000000e+00
1.650000000000e+00 0.000000000000e+00 -5.000000000000e+00
1.675000000000e+00 0.000000000000e+00 -5.000000000000e+00
1.700000000000e+00 0.000000000000e+00 -5.000000000000e+00
1.725000000000e+00 0.000000000000e+00 -5.000000000000e+00
1.750000000000e+00 0.000000000000e+00 -5.000000000000e+00
1.775000000000e+00 0.000000000000e+00 -5.000000000000e+00
1.800000000000e+00 0.000000000000e+00 -5.000000000000e+00
1.825000000000e+00 0.000000000000e+00 -5.000000000000e+00
1.850000000000e+00 0.000000000000e+00 -5.000000000000e+00
1.875000000000e+00 0.000000000000e+00 -5.000000000000e+00
1.900000000000e+00 0.000000000000e+00 -5.000000000000e+00
1.925000000000e+00 0.000000000000e+00 -5.000000000000e+00
1.950000000000e+00 0.000000000000e+00 -5.000000000000e+00
1.975000000000e+00 0.000000000000e+00 -5.000000000000e+00
2.000000000000e+00 0.000000000000e+00 -5.000000000000e+00
2.025000000000e+00 0.000000000000e+00 -5.000000000000e+00
2.050000000000e+00 0.000000000000e+00 -5.000000000000e+00
2.075000000000e+00 0.000000000000e+00 -5.000000000000e+00
2.100000000000e+00 0.000000000000e+00 -5.000000000000e+00
2.125000000000e+00 0.000000000000e+00 -5.000000000000e+00
2.150000000000e+00 0.000000000000e+00 -5.000000000000e+00
2.175000000000e+00 0.000000000000e+00 -5.000000000000e+00
2.200000000000e+00 0.000000000000e+00 -5.000000000000e+00
2.225000000000e+00 0.000000000000e+00 -5.000000000000e+00
2.250000000000e+00 0.000000000000e+00 -5.000000000000e+00
2.275000000000e+00 0.000000000000e+00 -5.000000000000e+00
2.300000000000e+00 0.000000000000e+00 -5.000000000000e+00
2.325000000000e+00 0.000000000000e+00 -5.000000000000e+00
2.350000000000e+00 0.000000000000e+00 -5.000000000000e+00
2.375000000000e+00 0.000000000000e+00 -5.000000000000e+00
2.400000000000e+00 0.000000000000e+00 -5.000000000000e+00
2.425000000000e+00 0.000000000000e+00 -5.000000000000e+00
2.450000000000e+00 0.000000000000e+00 -5.000000000000e+00
2.475000000000e+00 0.000000000000e+00 -5.000000000000e+00
2.500000000000e+00 0.000000000000e+00 -5.000000000000e+00
2.525000000000e+00 0.000000000000e+00 -5.000000000000e+00
2.550000000000e+00 0.000000000000e+00 -5.000000000000e+00
2.575000000000e+00 0.000000000000e+00 -5.000000000000e+00
2.600000000000e+00 0.000000000000e+00 -5.000000000000e+00
2.625000000000e+00 0.000000000000e+00 -5.000000000000e+00
2.650000000000e+00 0.000000000000e+00 -5.000000000000e+00
2.675000000000e+00 0.000000000000e+00 -5.000000000000e+00
2.700000000000e+00 0.000000000000e+00 -5.000000000000e+00
2.725000000000e+00 0.000000000000e+00 -5.000000000000e+00
2.750000000000e+00 0.000000000000e+00 -5.000000000000e+00
2.775000000000e+00 0.000000000000e+00 -5.000000000000e+00
2.800000000000e+00 0.000000000000e+00 -5.000000000000e+00
2.825000000000e+00 0.000000000000e+00 -5.000000000000e+00
2.850000000000e+00 0.000000000000e+00 -5.000000000000e+00
2.875000000000e+00 0.000000000000e+00 -5.000000000000e+00
2.900000000000e+00 0.000000000000e+00 -5.000000000000e+00
2.925000000000e+00 0.000000000000e+00 -5.000000000000e+00
2.950000000000e+00 0.000000000000e+00 -5.000000000000e+00
2.975000000000e+00 0.000000000000e+00 -5.000000000000e+00
3.000000000000e+00 0.000000000000e+00 -5.000000000000e+00
3.025000000000e+00 0.000000000000e+00 -5.000000000000e+00
3.050000000000e+00 0.000000000000e+00 -5.000000000000e+00
3.075000000000e+00 0.000000000000e+00 -5.000000000000e+00
3.100000000000e+00 0.000000000000e+00 -5.000000000000e+00
3.125000000000e+00 0.000000000000e+00 -5.000000000000e+00
3.150000000000e+00 0.000000000000e+00 -5.000000000000e+00
3.175000000000e+00 0.000000000000e+00 -5.000000000000e+00
[...]
POINT_DATA 16441
SCALARS HEAD double 1
LOOKUP_TABLE default
1.000000000000e-02
9.924486870970e-03
9.850213626049e-03
9.777188967123e-03
9.705421875087e-03
9.634922149134e-03
9.565700610325e-03
9.497769117679e-03
9.431140480039e-03
9.365828311457e-03
9.301846857873e-03
9.239210811441e-03
9.177935122176e-03
9.118034812555e-03
9.059524798368e-03
9.002419717603e-03
8.946733768313e-03
8.892480555868e-03
8.839672949728e-03
8.788322949671e-03
8.738441561392e-03
8.690038681303e-03
8.643122990429e-03
8.597701857254e-03
8.553781249438e-03
8.511365654301e-03
8.470458008004e-03
8.431059633345e-03
8.393170186053e-03
8.356787609476e-03
8.321908097469e-03
8.288526065265e-03
8.256634128046e-03
8.226223086843e-03
8.197281921327e-03
8.169797788969e-03
8.143756029974e-03
8.119140177310e-03
8.095931971138e-03
8.074111376898e-03
8.053656606372e-03
8.034544141146e-03
8.016748758077e-03
8.000243556770e-03
7.984999989523e-03
7.970987894992e-03
7.958175537836e-03
7.946529657969e-03
7.936015534832e-03
7.926597074370e-03
7.918236929037e-03
7.910896663668e-03
7.904536980152e-03
7.899118004792e-03
7.894599607352e-03
7.890941635146e-03
7.888103877138e-03
7.886047793050e-03
7.884758563776e-03
7.884370331011e-03
7.883114965703e-03
7.881244188166e-03
7.878831888150e-03
7.875912448481e-03
7.872503095328e-03
7.868612100087e-03
7.864242279190e-03
7.859392920568e-03
7.854060982879e-03
7.848241643032e-03
7.841928817831e-03
7.835115476087e-03
7.827793875765e-03
7.819955793962e-03
7.811592651351e-03
7.802695721281e-03
7.793256229142e-03
7.783265495947e-03
7.772715067100e-03
7.761596817842e-03
7.749903097984e-03
7.737626819419e-03
7.724761591676e-03
7.711301829038e-03
7.697242861815e-03
7.682581046533e-03
7.667313872402e-03
7.651440061139e-03
7.634959663633e-03
7.617874147898e-03
7.600186479677e-03
7.581901193646e-03
7.563024453477e-03
7.543564100529e-03
7.523529689493e-03
7.502932510335e-03
7.481785595687e-03
7.460103713264e-03
7.437903342844e-03
7.415202637790e-03
7.392021371175e-03
7.368380866903e-03
7.344303916410e-03
7.319814681766e-03
7.294938586218e-03
7.269702193413e-03
7.244133076694e-03
7.218259680035e-03
7.192111172278e-03
7.165717296426e-03
7.139108215780e-03
7.112314358761e-03
7.085366264181e-03
7.058294428738e-03
7.031129158375e-03
7.003900425068e-03
6.976637730460e-03
6.949369977602e-03
6.922125351913e-03
6.894931212258e-03
6.867813992886e-03
6.840799116766e-03
6.813910920667e-03
6.787172592160e-03
6.760606118530e-03
6.734232247432e-03
6.708070458981e-03
6.682138948814e-03
6.656454621574e-03
6.631033094152e-03
6.605888707934e-03
6.581034549270e-03
6.556482477309e-03
6.532243158326e-03
6.508326105666e-03
6.484739724417e-03
6.461491359956e-03
6.438587349508e-03
6.416033075946e-03
6.393833023037e-03
6.371990831444e-03
6.350509354815e-03
6.329390715355e-03
6.308636358335e-03
6.288247105048e-03
6.268223203779e-03
6.248564378410e-03
6.229269874339e-03
6.210338501433e-03
6.191768673802e-03
6.173558446189e-03
6.155705546861e-03
6.138207406879e-03
6.121061185693e-03
6.104263793021e-03
6.087811907014e-03
6.071701988737e-03
6.055930293015e-03
6.040492875750e-03
6.025385597797e-03
6.010604125584e-03
5.996143928620e-03
5.982000274133e-03
5.968168219070e-03
5.954642599755e-03
5.941418019530e-03
5.928488834745e-03
5.915849139498e-03
5.903492749580e-03
5.891413186102e-03
5.879603659325e-03
5.868057053235e-03
5.856765911444e-03
5.845722424990e-03
5.834918422637e-03
5.824345364228e-03
5.813994337668e-03
5.803856060071e-03
5.793920883671e-03
5.784178807129e-03
5.774619492387e-03
5.765232284642e-03
5.756006229165e-03
5.746930167023e-03
5.737992639362e-03
5.729182106751e-03
5.720486861752e-03
5.711895149769e-03
5.703395217405e-03
5.694975374926e-03
5.686624064519e-03
5.678329930749e-03
5.670081892109e-03
5.661869212764e-03
5.653681573718e-03
5.645509142957e-03
5.637342646527e-03
5.629173413920e-03
5.620993474318e-03
5.612795563283e-03
5.604573206687e-03
5.596320742891e-03
5.588033358631e-03
5.579707113309e-03
5.571338953898e-03
5.562926722623e-03
5.554469152900e-03
5.545965859894e-03
5.537417321017e-03
5.528824847868e-03
5.520190551394e-03
5.511517300057e-03
5.502808670945e-03
5.494068895780e-03
5.485302802011e-03
5.476515749918e-03
5.467713566561e-03
5.458902477193e-03
5.450089034746e-03
5.441280048636e-03
5.432482516496e-03
5.423703563271e-03
5.414950352615e-03
5.406229991018e-03
5.397549624808e-03
5.388916112459e-03
5.380336205214e-03
5.371816380200e-03
5.363362809089e-03
5.354981318705e-03
5.346677351089e-03
5.338455928425e-03
5.330321620646e-03
5.322278505678e-03
5.314330120922e-03
5.306479556231e-03
5.298729408797e-03
5.291081383301e-03
5.283537077538e-03
5.276097212828e-03
5.268761982802e-03
5.261530990484e-03
5.254403211892e-03
5.247376987014e-03
5.240450041740e-03
5.233619529786e-03
5.226881783144e-03
5.220231996365e-03
5.213666132177e-03
5.207177610557e-03
5.200760134674e-03
5.194406446270e-03
5.188108421062e-03
5.181857119197e-03
5.175642775526e-03
5.169454776550e-03
5.163281640279e-03
5.157111000482e-03
5.150929592836e-03
5.144723241093e-03
5.138476840596e-03
5.132174335797e-03
5.125798693920e-03
5.119331876063e-03
5.112754798873e-03
5.106047284503e-03
5.099188012241e-03
5.092154498031e-03
5.084923076993e-03
5.077468292590e-03
5.069763999493e-03
5.061782062785e-03
5.053492817852e-03
5.044865201731e-03
5.035866168820e-03
5.026461113998e-03
5.016613543316e-03
5.006285071740e-03
4.995435487462e-03
4.984022691426e-03
4.972002713396e-03
4.959329744487e-03
4.945956185380e-03
4.931832711591e-03
4.916908356349e-03
4.901130611149e-03
4.884445543986e-03
4.866797935475e-03
4.848131433273e-03
4.828388725563e-03
4.807511734548e-03
4.785441831113e-03
4.762120071891e-03
4.737487459969e-03
4.711485230340e-03
4.684055160996e-03
4.655139910234e-03
4.624683380323e-03
4.592631107192e-03
4.558930675213e-03
4.523532155528e-03
4.486388565670e-03
4.447456347543e-03
4.406695860044e-03
4.364071881921e-03
4.319554119725e-03
4.273117715022e-03
4.224743744442e-03
4.174419705580e-03
4.122139981344e-03
4.067906275011e-03
4.011728008089e-03
3.953622673073e-03
3.893616133314e-03
3.831742862560e-03
3.768046117268e-03
3.702578035438e-03
3.635399656652e-03
3.566580859016e-03
3.496200209907e-03
3.424344728769e-03
3.351109561603e-03
3.276597568310e-03
3.200918825560e-03
3.124190049389e-03
3.046533943189e-03
2.968078478162e-03
2.888956114573e-03
2.809302973246e-03
2.729257967689e-03
2.648961907946e-03
2.568556587778e-03
2.488183866992e-03
2.407984760801e-03
2.328098547791e-03
2.248661907662e-03
2.169808099187e-03
2.091666187969e-03
2.014360332522e-03
1.938009136023e-03
1.862725069813e-03
1.788613973351e-03
1.715774633964e-03
1.644298448374e-03
1.574269166632e-03
1.505762717815e-03
1.438847115728e-03
1.373582441717e-03
1.310020900867e-03
1.248206947045e-03
1.188177471648e-03
1.129962050502e-03
1.073583243056e-03
1.019056937916e-03
9.663927388244e-04
9.155943854053e-04
8.666602033406e-04
8.195835791916e-04
7.743534557296e-04
7.309548444767e-04
6.893693531562e-04
6.495757269440e-04
6.115504038436e-04
5.752680862290e-04
5.407023327115e-04
5.078261771261e-04
4.766127848001e-04
4.470361606811e-04
4.190719298167e-04
3.926982188258e-04
3.678966785081e-04
3.446537044424e-04
3.229619373655e-04
3.028221636211e-04
2.842457976769e-04
2.672582326495e-04
2.519035321928e-04
2.382513105144e-04
2.264075105920e-04
2.165332648168e-04
2.088856521199e-04
2.039562301875e-04
2.016610652347e-04
1.959604210896e-04
1.882108258985e-04
1.789756756297e-04
1.686356502454e-04
1.574756564525e-04
1.457165431647e-04
1.335318348076e-04
1.210587937490e-04
1.084069467003e-04
9.566540264159e-05
8.290963604927e-05
7.020814806857e-05
5.762932438759e-05
4.524881169168e-05
3.315783562595e-05
2.147314581671e-05
1.034987951033e-05
0.000000000000e+00
1.000000000000e-02
9.924994899066e-03
9.851194956882e-03
9.778605367476e-03
9.707233990128e-03
9.637090840294e-03
9.568187698664e-03
9.500537784849e-03
9.434155470124e-03
9.369056016838e-03
9.305255338198e-03
9.242769775064e-03
9.181615887717e-03
9.121810261195e-03
9.063369323138e-03
9.006309173269e-03
8.950645423768e-03
8.896393049925e-03
8.843566250557e-03
8.792178317765e-03
8.742241515734e-03
8.693766968319e-03
8.646764555270e-03
8.601242817009e-03
8.557208867888e-03
8.514668317942e-03
8.473625203121e-03
8.434081924027e-03
8.396039193144e-03
8.359495990537e-03
8.324449527953e-03
8.290895221194e-03
8.258826670585e-03
8.228235649257e-03
8.199112098902e-03
8.171444132546e-03
8.145218043795e-03
8.120418321915e-03
8.097027671998e-03
8.075027039405e-03
8.054395637608e-03
8.035110978552e-03
8.017148904715e-03
8.000483622231e-03
7.985087734767e-03
7.970932278537e-03
7.957986759839e-03
7.946219198292e-03
7.935596181766e-03
7.926082943760e-03
7.917643482396e-03
7.910240756555e-03
7.903837029834e-03
7.898394515230e-03
7.893876676126e-03
7.890251052315e-03
7.887495790115e-03
7.885613368034e-03
7.884663468722e-03
7.884051946124e-03
7.882635877822e-03
7.880654044387e-03
7.878157467402e-03
7.875168605813e-03
7.871698854673e-03
7.867753254094e-03
7.863333020926e-03
7.858436681883e-03
7.853060560030e-03
7.847199551019e-03
7.840847348944e-03
7.833996753411e-03
7.826639922516e-03
7.818768504369e-03
7.810373899397e-03
7.801447280844e-03
7.791979809470e-03
7.781962731290e-03
7.771387487817e-03
7.760245864852e-03
7.748530052134e-03
7.736232820973e-03
7.723347596018e-03
7.709868582102e-03
7.695790878629e-03
7.681110588140e-03
7.665824922326e-03
7.649932308676e-03
7.633432486575e-03
7.616326600646e-03
7.598617284514e-03
7.580308735258e-03
7.561406778430e-03
7.541918920414e-03
7.521854388337e-03
7.501224156063e-03
7.480040955700e-03
7.458319273722e-03
7.436075331582e-03
7.413327050484e-03
7.390094000455e-03
7.366397334031e-03
7.342259705106e-03
7.317705173740e-03
7.292759097983e-03
7.267448013892e-03
7.241799505184e-03
7.215842064086e-03
7.189604945049e-03
7.163118013118e-03
7.136411588790e-03
7.109516291198e-03
7.082462881474e-03
7.055282108067e-03
7.028004555727e-03
7.000660499758e-03
6.973279766997e-03
6.945891604845e-03
6.918524559468e-03
6.891206364144e-03
6.863963838516e-03
6.836822799311e-03
6.809807982922e-03
6.782942980033e-03
6.756250182303e-03
6.729750740953e-03
6.703464536947e-03
6.677410162332e-03
6.651604912163e-03
6.626064786346e-03
6.600804500669e-03
6.575837506197e-03
6.551176016175e-03
6.526831039568e-03
6.502812420329e-03
6.479128881506e-03
6.455788073313e-03
6.432796624312e-03
6.410160194882e-03
6.387883532211e-03
6.365970526096e-03
6.344424264854e-03
6.323247090769e-03
6.302440654498e-03
6.282005967938e-03
6.261943455146e-03
6.242253000893e-03
6.222933996560e-03
6.203985383078e-03
6.185405690693e-03
6.167193075372e-03
6.149345351708e-03
6.131860022214e-03
6.114734302944e-03
6.097965145397e-03
6.081549254702e-03
6.065483104101e-03
6.049762945788e-03
6.034384818176e-03
6.019344549712e-03
6.004637759366e-03
5.990259853993e-03
5.976206022739e-03
5.962471228790e-03
5.949050198708e-03
5.935937409707e-03
5.923127075251e-03
5.910613129379e-03
5.898389210242e-03
5.886448643345e-03
5.874784425057e-03
5.863389206950e-03
5.852255281591e-03
5.841374570394e-03
5.830738614177e-03
5.820338567044e-03
5.810165194209e-03
5.800208874227e-03
5.790459605900e-03
5.780907020049e-03
5.771540397209e-03
5.762348696772e-03
5.753320606958e-03
5.744444454988e-03
5.735708537033e-03
5.727100793880e-03
5.718609158204e-03
5.710221480692e-03
5.701925614630e-03
5.693709487181e-03
5.685561167906e-03
5.677468939057e-03
5.669421367561e-03
5.661407377660e-03
5.653416322622e-03
5.645438053297e-03
5.637462977527e-03
5.629482160107e-03
5.621487301522e-03
5.613470890167e-03
5.605426169923e-03
5.597347215304e-03
5.589228955852e-03
5.581067198404e-03
5.572858642732e-03
5.564600885679e-03
5.556292423084e-03
5.547932636080e-03
5.539521772640e-03
5.531060922500e-03
5.522551982940e-03
5.513997617725e-03
5.505401211526e-03
5.496766817931e-03
5.488099102993e-03
5.479403284964e-03
5.470685071088e-03
5.461950592592e-03
5.453206338828e-03
5.444459089801e-03
5.435715842271e-03
5.426983726120e-03
5.418269985154e-03
5.409581962886e-03
5.400926702777e-03
5.392311463660e-03
5.383743153262e-03
5.375228506630e-03
5.366774005045e-03
5.358385815609e-03
5.350069744996e-03
5.341831198972e-03
5.333675152389e-03
5.325606145685e-03
5.317628296482e-03
5.309745030822e-03
5.301959167832e-03
5.294273700753e-03
5.286690057429e-03
5.279209722270e-03
5.271833491919e-03
5.264561547387e-03
5.257393491448e-03
5.250328321840e-03
5.243364338848e-03
5.236499045007e-03
5.229729649660e-03
5.223053503214e-03
5.216464043822e-03
5.209957880887e-03
5.203528655128e-03
5.197169479227e-03
5.190872757192e-03
5.184630011045e-03
5.178431821107e-03
5.172267808401e-03
5.166126623708e-03
5.159995933775e-03
5.153862405340e-03
5.147711688220e-03
5.141528400744e-03
5.135296120688e-03
5.128997371434e-03
5.122613595755e-03
5.116125128792e-03
5.109511171314e-03
5.102749732742e-03
5.095817502380e-03
5.088689736172e-03
5.081341284309e-03
5.073743989306e-03
5.065869272501e-03
5.057686950274e-03
5.049164689002e-03
5.040269050553e-03
5.030964423971e-03
5.021213591693e-03
5.010977656217e-03
5.000215839092e-03
4.988885603545e-03
4.976942676014e-03
4.964341079366e-03
4.951033182022e-03
4.936969761086e-03
4.922100078412e-03
4.906371969707e-03
4.889731947519e-03
4.872125319500e-03
4.853496323605e-03
4.833788282071e-03
4.812943776062e-03
4.790904842778e-03
4.767613196697e-03
4.743010476409e-03
4.717038518194e-03
4.689639657172e-03
4.660757056466e-03
4.630335064333e-03
4.598319598748e-03
4.564658558327e-03
4.529302257888e-03
4.492203886279e-03
4.453319983427e-03
4.412610932844e-03
4.370041465124e-03
4.325581167277e-03
4.279204992047e-03
4.230893760814e-03
4.180634653065e-03
4.128421675052e-03
4.074256099888e-03
4.018146871154e-03
3.960110962082e-03
3.900173682473e-03
3.838368925864e-03
3.774739349938e-03
3.709336483838e-03
3.642220756957e-03
3.573461444753e-03
3.503136528370e-03
3.431332466138e-03
3.358143876453e-03
3.283673133046e-03
3.208029875148e-03
3.131330436629e-03
3.053697199641e-03
2.975257879727e-03
2.896144750639e-03
2.816493818251e-03
2.736443953913e-03
2.656135998328e-03
2.575711847558e-03
2.495313533058e-03
2.415082307630e-03
2.335157749014e-03
2.255676892367e-03
2.176773402193e-03
2.098576793462e-03
2.021211710566e-03
1.944797271626e-03
1.869446484358e-03
1.795265738348e-03
1.722354377220e-03
1.650804352777e-03
1.580699961855e-03
1.512117665341e-03
1.445125987623e-03
1.379785493660e-03
1.316148839916e-03
1.254260894628e-03
1.194158922225e-03
1.135872826254e-03
1.079425444873e-03
1.024832892808e-03
9.721049437019e-04
9.212454469484e-04
8.722527734022e-04
8.251202848291e-04
7.798368225276e-04
7.363872112801e-04
6.947527756452e-04
6.549118666088e-04
6.168403977851e-04
5.805123917455e-04
5.459005387073e-04
5.129767718336e-04
4.817128659173e-04
4.520810694850e-04
4.240547846850e-04
3.976093153232e-04
3.727227120108e-04
3.493767563059e-04
3.275581461130e-04
3.072599786262e-04
2.884836877220e-04
2.712417088598e-04
2.555613859947e-04
2.414911859554e-04
2.291116930676e-04
2.185580461209e-04
2.100763258581e-04
2.042320045805e-04
2.012079886229e-04
1.945892209444e-04
1.861158313924e-04
1.763888148611e-04
1.657769668621e-04
1.545407787066e-04
1.428734726054e-04
1.309204625141e-04
1.187911074745e-04
1.065671484290e-04
9.430953898616e-05
8.206445569604e-05
6.986890536332e-05
5.775617173714e-05
4.576122644787e-05
3.392608694235e-05
2.230483867093e-05
1.096743655014e-05
0.000000000000e+00
1.000000000000e-02
9.926468339433e-03
9.854014253252e-03
9.782647247422e-03
9.712380108460e-03
9.643228103381e-03
9.575208372259e-03
9.508339455469e-03
9.442640915447e-03
9.378133025452e-03
9.314836506500e-03
9.252772299519e-03
9.191961363801e-03
9.132424495517e-03
9.074182161944e-03
9.017254348357e-03
8.961660415467e-03
8.907418965924e-03
8.854547718917e-03
8.803063392247e-03
8.752981591525e-03
8.704316706333e-03
8.657081813362e-03
8.611288586631e-03
8.566947214990e-03
8.524066327140e-03
8.482652924458e-03
8.442712321923e-03
8.404248097403e-03
8.367262049591e-03
8.331754164792e-03
8.297722592751e-03
8.265163631622e-03
8.234071722123e-03
8.204439450825e-03
8.176257562421e-03
8.149514980743e-03
8.124198838116e-03
8.100294512562e-03
8.077785672182e-03
8.056654325858e-03
8.036880879274e-03
8.018444195009e-03
8.001321655280e-03
7.985489225806e-03
7.970921519280e-03
7.957591857391e-03
7.945472331580e-03
7.934533865412e-03
7.924746286703e-03
7.916078426785e-03
7.908498278982e-03
7.901973269164e-03
7.896470717693e-03
7.891958615603e-03
7.888407030238e-03
7.885791857477e-03
7.884120250585e-03
7.883663743921e-03
7.882585885973e-03
7.880916242421e-03
7.878712720651e-03
7.876012601284e-03
7.872835221635e-03
7.869189502300e-03
7.865079500974e-03
7.860505042239e-03
7.855463033448e-03
7.849949225014e-03
7.843957640074e-03
7.837481450173e-03
7.830513147567e-03
7.823044622238e-03
7.815067508229e-03
7.806572913932e-03
7.797552016779e-03
7.787995851032e-03
7.777895499854e-03
7.767242232835e-03
7.756027490534e-03
7.744243206465e-03
7.731881670296e-03
7.718935801990e-03
7.705399220160e-03
7.691266346843e-03
7.676532530268e-03
7.661194166181e-03
7.645248798196e-03
7.628695234743e-03
7.611533646327e-03
7.593765662327e-03
7.575394459932e-03
7.556424838813e-03
7.536863287923e-03
7.516718038204e-03
7.495999101694e-03
7.474718295144e-03
7.452889248506e-03
7.430527396636e-03
7.407649954550e-03
7.384275875826e-03
7.360425794449e-03
7.336121950524e-03
7.311388100644e-03
7.286249413734e-03
7.260732353760e-03
7.234864550533e-03
7.208674660315e-03
7.182192217899e-03
7.155447482045e-03
7.128471276168e-03
7.101294826272e-03
7.073949598056e-03
7.046467135151e-03
7.018878900307e-03
6.991216121299e-03
6.963509643157e-03
6.935789788177e-03
6.908086224984e-03
6.880427847752e-03
6.852842666449e-03
6.825357708798e-03
6.797998934421e-03
6.770791161438e-03
6.743758005603e-03
6.716921831867e-03
6.690303718098e-03
6.663923430531e-03
6.637799410408e-03
6.611948771118e-03
6.586387305103e-03
6.561129499676e-03
6.536188560892e-03
6.511576444532e-03
6.487303893290e-03
6.463380479210e-03
6.439814650479e-03
6.416613781663e-03
6.393784226544e-03
6.371331372756e-03
6.349259697453e-03
6.327572823319e-03
6.306273574281e-03
6.285364030355e-03
6.264845581105e-03
6.244718977263e-03
6.224984380128e-03
6.205641408390e-03
6.186689182106e-03
6.168126363587e-03
6.149951194997e-03
6.132161532521e-03
6.114754876969e-03
6.097728400741e-03
6.081078971096e-03
6.064803169678e-03
6.048897308318e-03
6.033357441111e-03
6.018179372833e-03
6.003358663755e-03
5.988890630983e-03
5.974770346431e-03
5.960992631689e-03
5.947552049884e-03
5.934442894973e-03
5.921659178679e-03
5.909194615538e-03
5.897042606490e-03
5.885196221561e-03
5.873648182200e-03
5.862390843942e-03
5.851416180072e-03
5.840715767016e-03
5.830280772183e-03
5.820101944953e-03
5.810169611514e-03
5.800473674247e-03
5.791003616600e-03
5.781748514644e-03
5.772697055795e-03
5.763837561395e-03
5.755157997907e-03
5.746645962074e-03
5.738289132975e-03
5.730074336133e-03
5.721988888611e-03
5.714019653548e-03
5.706153532767e-03
5.698377476427e-03
5.690678534550e-03
5.683043928789e-03
5.675461127724e-03
5.667917920808e-03
5.660402489691e-03
5.652903478308e-03
5.645410064673e-03
5.637912045088e-03
5.630399773979e-03
5.622864486920e-03
5.615298008429e-03
5.607693059572e-03
5.600043176815e-03
5.592342759091e-03
5.584587092110e-03
5.576772359240e-03
5.568895653451e-03
5.560954959845e-03
5.552949155672e-03
5.544877991787e-03
5.536742062793e-03
5.528542777840e-03
5.520282326790e-03
5.511963636079e-03
5.503590323952e-03
5.495166651601e-03
5.486697470858e-03
5.478188168423e-03
5.469644606306e-03
5.461073059647e-03
5.452480158684e-03
5.443872850308e-03
5.435258377528e-03
5.426644044083e-03
5.418037036707e-03
5.409445476678e-03
5.400876388726e-03
5.392337370749e-03
5.383835794795e-03
5.375378822260e-03
5.366973399137e-03
5.358626220662e-03
5.350343682234e-03
5.342131804303e-03
5.333996102622e-03
5.325941491210e-03
5.317973091269e-03
5.310095669576e-03
5.302311054085e-03
5.294624050023e-03
5.287036865042e-03
5.279551436308e-03
5.272169280470e-03
5.264891363531e-03
5.257718160176e-03
5.250649866151e-03
5.243686454327e-03
5.236825785643e-03