 TITLE = "Profiles along polylines"
 VARIABLES = "DIST" "CONCENTRATION1" 
 ZONE T="TIME=0.000000000000e+00"
0.000000000000e+00 0.000000000000e+00 
1.000000000000e-01 0.000000000000e+00 
2.000000000000e-01 0.000000000000e+00 
3.000000000000e-01 0.000000000000e+00 
4.000000000000e-01 0.000000000000e+00 
5.000000000000e-01 0.000000000000e+00 
6.000000000000e-01 0.000000000000e+00 
7.000000000000e-01 0.000000000000e+00 
8.000000000000e-01 0.000000000000e+00 
9.000000000000e-01 0.000000000000e+00 
1.000000000000e+00 0.000000000000e+00 
1.100000000000e+00 0.000000000000e+00 
1.200000000000e+00 0.000000000000e+00 
1.300000000000e+00 0.000000000000e+00 
1.400000000000e+00 0.000000000000e+00 
1.500000000000e+00 0.000000000000e+00 
1.600000000000e+00 0.000000000000e+00 
1.700000000000e+00 0.000000000000e+00 
1.800000000000e+00 0.000000000000e+00 
1.900000000000e+00 0.000000000000e+00 
2.000000000000e+00 0.000000000000e+00 
2.100000000000e+00 0.000000000000e+00 
2.200000000000e+00 0.000000000000e+00 
2.300000000000e+00 0.000000000000e+00 
2.400000000000e+00 0.000000000000e+00 
2.500000000000e+00 0.000000000000e+00 
2.600000000000e+00 0.000000000000e+00 
2.700000000000e+00 0.000000000000e+00 
2.800000000000e+00 0.000000000000e+00 
2.900000000000e+00 0.000000000000e+00 
3.000000000000e+00 0.000000000000e+00 
3.100000000000e+00 0.000000000000e+00 
3.200000000000e+00 0.000000000000e+00 
3.300000000000e+00 0.000000000000e+00 
3.400000000000e+00 0.000000000000e+00 
3.500000000000e+00 0.000000000000e+00 
3.600000000000e+00 0.000000000000e+00 
3.700000000000e+00 0.000000000000e+00 
3.800000000000e+00 0.000000000000e+00 
3.900000000000e+00 0.000000000000e+00 
4.000000000000e+00 0.000000000000e+00 
 TITLE = "Profiles along polylines"
 VARIABLES = "DIST" "CONCENTRATION1" 
 ZONE T="TIME=7.200000000000e+03"
0.000000000000e+00 0.000000000000e+00 
1.000000000000e-01 -1.436700387219e-35 
2.000000000000e-01 -1.462618412821e-34 
3.000000000000e-01 2.266772928714e-33 
4.000000000000e-01 -1.018418088136e-32 
5.000000000000e-01 -4.335784497962e-32 
6.000000000000e-01 1.782683001878e-31 
7.000000000000e-01 9.863176909724e-31 
8.000000000000e-01 1.735024731310e-30 
9.000000000000e-01 1.362017648008e-30 
1.000000000000e+00 1.040119846713e-31 
1.100000000000e+00 -8.963035239198e-31 
1.200000000000e+00 -1.025855188507e-30 
1.300000000000e+00 -5.306772059825e-31 
1.400000000000e+00 -1.294063496976e-31 
1.500000000000e+00 -2.958607972659e-32 
1.600000000000e+00 1.181135905985e-30 
1.700000000000e+00 -8.176589337277e-30 
1.800000000000e+00 3.718548925857e-29 
1.900000000000e+00 -8.994191476244e-29 
2.000000000000e+00 -3.635657354318e-28 
2.100000000000e+00 6.678994566167e-27 
2.200000000000e+00 -5.024996247340e-26 
2.300000000000e+00 1.762485253349e-25 
2.400000000000e+00 1.079065514071e-24 
2.500000000000e+00 -2.263802710760e-23 
2.600000000000e+00 8.570763900372e-24 
2.700000000000e+00 8.159938312491e-24 
2.800000000000e+00 -1.445032779338e-24 
2.900000000000e+00 3.284179728299e-25 
3.000000000000e+00 -7.091507183397e-26 
3.100000000000e+00 1.528263106607e-26 
3.200000000000e+00 -5.150300988534e-27 
3.300000000000e+00 -8.307548978835e-28 
3.400000000000e+00 7.106328125754e-28 
3.500000000000e+00 -5.327495782264e-29 
3.600000000000e+00 6.911702686412e-31 
3.700000000000e+00 4.933392352514e-31 
3.800000000000e+00 -1.388885761066e-31 
3.900000000000e+00 3.093822579081e-32 
4.000000000000e+00 0.000000000000e+00 
 ZONE T="TIME=1.440000000000e+04"
0.000000000000e+00 0.000000000000e+00 
1.000000000000e-01 -3.213162277675e-33 
2.000000000000e-01 5.690278900116e-33 
3.000000000000e-01 8.057489741236e-32 
4.000000000000e-01 -7.631660832734e-31 
5.000000000000e-01 -2.984189501818e-31 
6.000000000000e-01 1.373459363738e-29 
7.000000000000e-01 3.219757176817e-29 
8.000000000000e-01 1.346859946818e-29 
9.000000000000e-01 -3.031706573548e-29 
1.000000000000e+00 -4.374342676346e-29 
1.100000000000e+00 -2.890118225070e-29 
1.200000000000e+00 -2.637239420734e-30 
1.300000000000e+00 6.425237095690e-30 
1.400000000000e+00 -1.421200503723e-28 
1.500000000000e+00 1.017810469416e-27 
1.600000000000e+00 -5.109004055834e-27 
1.700000000000e+00 1.915299468255e-26 
1.800000000000e+00 -4.394304470006e-26 
1.900000000000e+00 -5.852964457421e-26 
2.000000000000e+00 1.258535371091e-24 
2.100000000000e+00 -5.051979680973e-24 
2.200000000000e+00 -4.207734596612e-23 
2.300000000000e+00 1.045299284459e-21 
2.400000000000e+00 -1.210625160181e-20 
2.500000000000e+00 9.250525450213e-20 
2.600000000000e+00 -4.105208337634e-19 
2.700000000000e+00 -2.028317125947e-19 
2.800000000000e+00 8.159274821917e-20 
2.900000000000e+00 -2.073734497042e-20 
3.000000000000e+00 4.664664987636e-21 
3.100000000000e+00 -1.012709526489e-21 
3.200000000000e+00 2.301675646498e-22 
3.300000000000e+00 -5.762843791599e-23 
3.400000000000e+00 1.332308471210e-23 
3.500000000000e+00 -1.501576992017e-24 
3.600000000000e+00 1.231430271867e-25 
3.700000000000e+00 -6.908702935335e-27 
3.800000000000e+00 -3.828460005403e-28 
3.900000000000e+00 2.725660506312e-28 
4.000000000000e+00 0.000000000000e+00 
 ZONE T="TIME=2.160000000000e+04"
0.000000000000e+00 0.000000000000e+00 
1.000000000000e-01 -7.845377340072e-32 
2.000000000000e-01 1.995651000328e-31 
3.000000000000e-01 1.308644359335e-30 
4.000000000000e-01 -1.620216765396e-29 
5.000000000000e-01 4.333626707099e-30 
6.000000000000e-01 2.928790124230e-28 
7.000000000000e-01 5.737582321206e-28 
8.000000000000e-01 3.569449906161e-29 
9.000000000000e-01 -8.491527580249e-28 
1.000000000000e+00 -9.381615004105e-28 
1.100000000000e+00 -4.463587101007e-28 
1.200000000000e+00 6.588564216500e-29 
1.300000000000e+00 -9.824692085916e-29 
1.400000000000e+00 -3.555152027379e-28 
1.500000000000e+00 6.215911326684e-27 
1.600000000000e+00 -4.059498301657e-26 
1.700000000000e+00 1.753640181268e-25 
1.800000000000e+00 -4.044817275601e-25 
1.900000000000e+00 -1.514328458520e-24 
2.000000000000e+00 2.701075423513e-23 
2.100000000000e+00 -2.046707770450e-22 
2.200000000000e+00 9.197810710866e-22 
2.300000000000e+00 2.815614861256e-22 
2.400000000000e+00 -5.084294029899e-20 
2.500000000000e+00 4.750324984760e-19 
2.600000000000e+00 -1.902791879447e-18 
2.700000000000e+00 -1.881192856713e-18 
2.800000000000e+00 -4.488802072243e-20 
2.900000000000e+00 2.400849667711e-20 
3.000000000000e+00 -6.452835180400e-21 
3.100000000000e+00 1.551535514936e-21 
3.200000000000e+00 -3.442526587551e-22 
3.300000000000e+00 6.652608442941e-23 
3.400000000000e+00 -7.291477767052e-23 
3.500000000000e+00 1.170031845112e-23 
3.600000000000e+00 -2.004690224705e-24 
3.700000000000e+00 3.822943043769e-25 
3.800000000000e+00 -7.984737200314e-26 
3.900000000000e+00 1.705648383612e-26 
4.000000000000e+00 0.000000000000e+00 
 ZONE T="TIME=2.880000000000e+04"
0.000000000000e+00 0.000000000000e+00 
1.000000000000e-01 -1.089880016126e-30 
2.000000000000e-01 3.153071700959e-30 
3.000000000000e-01 1.428785482359e-29 
4.000000000000e-01 -2.117887977891e-28 
5.000000000000e-01 1.167152309497e-28 
6.000000000000e-01 3.846821871369e-27 
7.000000000000e-01 7.083830800496e-27 
8.000000000000e-01 -3.110082964464e-28 
9.000000000000e-01 -1.150857247951e-26 
1.000000000000e+00 -1.205596456695e-26 
1.100000000000e+00 -5.189984652403e-27 
1.200000000000e+00 5.024042264268e-28 
1.300000000000e+00 -4.600140597841e-28 
1.400000000000e+00 2.605224168299e-28 
1.500000000000e+00 2.469772309464e-26 
1.600000000000e+00 -2.107613901374e-25 
1.700000000000e+00 1.127995157873e-24 
1.800000000000e+00 -4.103929684636e-24 
1.900000000000e+00 4.635449575990e-24 
2.000000000000e+00 8.030430610218e-23 
2.100000000000e+00 -8.592670849314e-22 
2.200000000000e+00 4.612607884145e-21 
2.300000000000e+00 -3.659513306371e-21 
2.400000000000e+00 -1.926823596941e-19 
2.500000000000e+00 1.794261415743e-18 
2.600000000000e+00 -8.123601163571e-18 
2.700000000000e+00 -7.048294025749e-18 
2.800000000000e+00 -7.134220192057e-19 
2.900000000000e+00 2.112866931444e-19 
3.000000000000e+00 -4.416903971112e-20 
3.100000000000e+00 8.405514342510e-21 
3.200000000000e+00 -1.496865956535e-21 
3.300000000000e+00 1.170186040868e-22 
3.400000000000e+00 -1.739937492379e-22 
3.500000000000e+00 8.089198533059e-24 
3.600000000000e+00 1.217960040156e-24 
3.700000000000e+00 -4.428589115674e-25 
3.800000000000e+00 1.078908470327e-25 
3.900000000000e+00 -2.428469967092e-26 
4.000000000000e+00 0.000000000000e+00 
 ZONE T="TIME=3.600000000000e+04"
0.000000000000e+00 0.000000000000e+00 
1.000000000000e-01 -1.081101311629e-29 
2.000000000000e-01 3.363102040203e-29 
3.000000000000e-01 1.192639458843e-28 
4.000000000000e-01 -2.033229923186e-27 
5.000000000000e-01 1.413525269743e-27 
6.000000000000e-01 3.707383842304e-26 
7.000000000000e-01 6.698492174306e-26 
8.000000000000e-01 -4.271006957257e-27 
9.000000000000e-01 -1.109166991363e-25 
1.000000000000e+00 -1.155696886030e-25 
1.100000000000e+00 -4.844441722127e-26 
1.200000000000e+00 3.153982419134e-27 
1.300000000000e+00 2.339159010164e-27 
1.400000000000e+00 4.416427511748e-28 
1.500000000000e+00 8.564156435252e-26 
1.600000000000e+00 -7.734358229310e-25 
1.700000000000e+00 4.246124889785e-24 
1.800000000000e+00 -1.596748496011e-23 
1.900000000000e+00 2.255055137662e-23 
2.000000000000e+00 2.608100340116e-22 
2.100000000000e+00 -2.855150862201e-21 
2.200000000000e+00 1.357195102388e-20 
2.300000000000e+00 1.798578929359e-20 
2.400000000000e+00 -8.719905577008e-19 
2.500000000000e+00 6.628951113001e-18 
2.600000000000e+00 -3.889962102071e-17 
2.700000000000e+00 -2.892789376191e-17 
2.800000000000e+00 -2.802127613180e-18 
2.900000000000e+00 8.034059556841e-19 
3.000000000000e+00 -1.583571139763e-19 
3.100000000000e+00 2.777318424413e-20 
3.200000000000e+00 -4.371202782398e-21 
3.300000000000e+00 2.001360292531e-22 
3.400000000000e+00 -4.040999703783e-22 
3.500000000000e+00 4.963894377966e-24 
3.600000000000e+00 5.466502158323e-24 
3.700000000000e+00 -1.204833690607e-24 
3.800000000000e+00 2.094478898444e-25 
3.900000000000e+00 -3.562194844273e-26 
4.000000000000e+00 0.000000000000e+00 
 ZONE T="TIME=4.320000000000e+04"
0.000000000000e+00 0.000000000000e+00 
1.000000000000e-01 -8.424094975175e-29 
2.000000000000e-01 2.763617176199e-28 
3.000000000000e-01 8.002012836445e-28 
4.000000000000e-01 -1.550151843796e-26 
5.000000000000e-01 1.210101229552e-26 
6.000000000000e-01 2.829676191713e-25 
7.000000000000e-01 5.101714639885e-25 
8.000000000000e-01 -2.332987380780e-26 
9.000000000000e-01 -8.343489489147e-25 
1.000000000000e+00 -8.880883971214e-25 
1.100000000000e+00 -3.877130312657e-25 
1.200000000000e+00 4.894015078810e-27 
1.300000000000e+00 3.907648316210e-26 
1.400000000000e+00 -4.781004064345e-26 
1.500000000000e+00 5.336840106473e-25 
1.600000000000e+00 -3.610382819349e-24 
1.700000000000e+00 1.644544693478e-23 
1.800000000000e+00 -4.640346854430e-23 
1.900000000000e+00 -4.128617718396e-23 
2.000000000000e+00 1.651230153979e-21 
2.100000000000e+00 -1.227881820250e-20 
2.200000000000e+00 3.718856738814e-20 
2.300000000000e+00 2.778302932345e-19 
2.400000000000e+00 -4.646053697205e-18 
2.500000000000e+00 2.944488822853e-17 
2.600000000000e+00 -2.072272783218e-16 
2.700000000000e+00 -1.473591933570e-16 
2.800000000000e+00 -1.473956973714e-17 
2.900000000000e+00 4.382983992590e-18 
3.000000000000e+00 -9.134488942355e-19 
3.100000000000e+00 1.739602149970e-19 
3.200000000000e+00 -3.143374502028e-20 
3.300000000000e+00 4.654535211633e-21 
3.400000000000e+00 -2.903385008018e-21 
3.500000000000e+00 2.984147732237e-22 
3.600000000000e+00 -2.262502533651e-23 
3.700000000000e+00 2.804551183708e-24 
3.800000000000e+00 -6.472070737451e-25 
3.900000000000e+00 1.631096886249e-25 
4.000000000000e+00 0.000000000000e+00 
 ZONE T="TIME=5.040000000000e+04"
0.000000000000e+00 0.000000000000e+00 
1.000000000000e-01 -5.443259703680e-28 
2.000000000000e-01 1.863532377431e-27 
3.000000000000e-01 4.505283697145e-27 
4.000000000000e-01 -9.864988982679e-26 
5.000000000000e-01 8.186155980965e-26 
6.000000000000e-01 1.797473765748e-24 
7.000000000000e-01 3.252517930996e-24 
8.000000000000e-01 -7.089616208933e-26 
9.000000000000e-01 -5.233070671957e-24 
1.000000000000e+00 -5.689566669258e-24 
1.100000000000e+00 -2.567550809935e-24 
1.200000000000e+00 -5.941951017466e-26 
1.300000000000e+00 2.249210514523e-25 
1.400000000000e+00 -3.300844477721e-25 
1.500000000000e+00 2.879042544285e-24 
1.600000000000e+00 -1.851591234927e-23 
1.700000000000e+00 7.848240681606e-23 
1.800000000000e+00 -1.819443898626e-22 
1.900000000000e+00 -5.530925669829e-22 
2.000000000000e+00 9.935256680605e-21 
2.100000000000e+00 -6.720044139668e-20 
2.200000000000e+00 2.106190261379e-19 
2.300000000000e+00 1.009657046588e-18 
2.400000000000e+00 -1.794360923951e-17 
2.500000000000e+00 1.070098649001e-16 
2.600000000000e+00 -8.270500607650e-16 
2.700000000000e+00 -6.798884814514e-16 
2.800000000000e+00 -6.932952659382e-17 
2.900000000000e+00 2.030195157437e-17 
3.000000000000e+00 -4.148098344494e-18 
3.100000000000e+00 7.681091749500e-19 
3.200000000000e+00 -1.343245550597e-19 
3.300000000000e+00 1.548932834454e-20 
3.400000000000e+00 -1.163778451779e-20 
3.500000000000e+00 1.197339104393e-21 
3.600000000000e+00 -5.482140489891e-23 
3.700000000000e+00 -3.122880749809e-25 
3.800000000000e+00 3.110126354996e-25 
3.900000000000e+00 -1.723021992563e-26 
4.000000000000e+00 0.000000000000e+00 
 ZONE T="TIME=5.760000000000e+04"
0.000000000000e+00 0.000000000000e+00 
1.000000000000e-01 -3.016939286664e-27 
2.000000000000e-01 1.071468218606e-26 
3.000000000000e-01 2.181394515857e-26 
4.000000000000e-01 -5.407455143717e-25 
5.000000000000e-01 4.630450201368e-25 
6.000000000000e-01 9.812045852411e-24 
7.000000000000e-01 1.789741763560e-23 
8.000000000000e-01 1.994991457000e-25 
9.000000000000e-01 -2.805574320141e-23 
1.000000000000e+00 -3.132693808762e-23 
1.100000000000e+00 -1.474004418631e-23 
1.200000000000e+00 -9.913084206775e-25 
1.300000000000e+00 7.428847544341e-25 
1.400000000000e+00 -3.625318827454e-25 
1.500000000000e+00 6.619800615091e-24 
1.600000000000e+00 -6.489911332891e-23 
1.700000000000e+00 3.395070413033e-22 
1.800000000000e+00 -1.097210617597e-21 
1.900000000000e+00 -5.466175074871e-23 
2.000000000000e+00 3.304830119867e-20 
2.100000000000e+00 -2.910288854346e-19 
2.200000000000e+00 1.463533276878e-18 
2.300000000000e+00 -3.046956019267e-18 
2.400000000000e+00 -1.340189985153e-17 
2.500000000000e+00 9.132000641022e-17 
2.600000000000e+00 -9.922346398247e-16 
2.700000000000e+00 -1.703184614045e-15 
2.800000000000e+00 -2.688557927355e-16 
2.900000000000e+00 6.946487245609e-17 
3.000000000000e+00 -1.298413825869e-17 
3.100000000000e+00 2.153346690808e-18 
3.200000000000e+00 -3.251634046056e-19 
3.300000000000e+00 -1.927034991118e-20 
3.400000000000e+00 -2.244351080683e-20 
3.500000000000e+00 -6.788373385876e-22 
3.600000000000e+00 7.920397962382e-22 
3.700000000000e+00 -1.931085017349e-22 
3.800000000000e+00 4.075219267189e-23 
3.900000000000e+00 -8.440855184642e-24 
4.000000000000e+00 0.000000000000e+00 
 ZONE T="TIME=6.480000000000e+04"
0.000000000000e+00 0.000000000000e+00 
1.000000000000e-01 -1.472459936617e-26 
2.000000000000e-01 5.396069474707e-26 
3.000000000000e-01 9.362039660909e-26 
4.000000000000e-01 -2.622842885768e-24 
5.000000000000e-01 2.267403209181e-24 
6.000000000000e-01 4.745464683994e-23 
7.000000000000e-01 8.803446218109e-23 
8.000000000000e-01 6.090398576134e-24 
9.000000000000e-01 -1.301279492451e-22 
1.000000000000e+00 -1.505533595830e-22 
1.100000000000e+00 -7.394274216229e-23 
1.200000000000e+00 -8.393965288573e-24 
1.300000000000e+00 9.353874651240e-25 
1.400000000000e+00 1.097591666519e-23 
1.500000000000e+00 -5.226578916316e-23 
1.600000000000e+00 4.130845428856e-23 
1.700000000000e+00 7.237330673911e-22 
1.800000000000e+00 -6.184381081146e-21 
1.900000000000e+00 2.933032885285e-20 
2.000000000000e+00 -5.812903933259e-20 
2.100000000000e+00 -5.368808350732e-19 
2.200000000000e+00 8.298023275825e-18 
2.300000000000e+00 -7.343824016640e-17 
2.400000000000e+00 5.116880301019e-16 
2.500000000000e+00 -2.771077868582e-15 
2.600000000000e+00 1.972813761992e-14 
2.700000000000e+00 7.005365840206e-15 
2.800000000000e+00 -3.896731712284e-16 
2.900000000000e+00 5.912629479573e-18 
3.000000000000e+00 1.301397314120e-17 
3.100000000000e+00 -5.309054169937e-18 
3.200000000000e+00 1.508099232375e-18 
3.300000000000e+00 -7.721489360796e-19 
3.400000000000e+00 8.218619179713e-20 
3.500000000000e+00 -3.116618414284e-20 
3.600000000000e+00 6.690335735767e-21 
3.700000000000e+00 -1.305331646697e-21 
3.800000000000e+00 2.669850100805e-22 
3.900000000000e+00 -5.605347799389e-23 
4.000000000000e+00 0.000000000000e+00 
 ZONE T="TIME=7.200000000000e+04"
0.000000000000e+00 0.000000000000e+00 
1.000000000000e-01 -6.482366496771e-26 
2.000000000000e-01 2.434595879827e-25 
3.000000000000e-01 3.718993910629e-25 
4.000000000000e-01 -1.156858502857e-23 
5.000000000000e-01 9.946459045793e-24 
6.000000000000e-01 2.108759049228e-22 
7.000000000000e-01 4.064086693410e-22 
8.000000000000e-01 7.810559717422e-23 
9.000000000000e-01 -5.116415883032e-22 
1.000000000000e+00 -6.291097241358e-22 
1.100000000000e+00 -3.210442373852e-22 
1.200000000000e+00 -4.944025828111e-23 
1.300000000000e+00 -3.145996469117e-24 
1.400000000000e+00 1.227919037704e-22 
1.500000000000e+00 -7.977347423536e-22 
1.600000000000e+00 2.851150385586e-21 
1.700000000000e+00 -4.945450282805e-21 
1.800000000000e+00 -2.500497137341e-20 
1.900000000000e+00 3.143170604586e-19 
2.000000000000e+00 -1.841729753387e-18 
2.100000000000e+00 5.070906414054e-18 
2.200000000000e+00 3.268646822271e-17 
2.300000000000e+00 -6.374384669088e-16 
2.400000000000e+00 5.581017397523e-15 
2.500000000000e+00 -3.046569833961e-14 
2.600000000000e+00 2.323015823001e-13 
2.700000000000e+00 1.300139802185e-13 
2.800000000000e+00 5.120756855193e-15 
2.900000000000e+00 -2.285840057516e-15 
3.000000000000e+00 5.682624509947e-16 
3.100000000000e+00 -1.252330007713e-16 
3.200000000000e+00 2.563584875354e-17 
3.300000000000e+00 -7.134379180482e-18 
3.400000000000e+00 1.252081092082e-18 
3.500000000000e+00 -2.533763178723e-19 
3.600000000000e+00 3.696012040782e-20 
3.700000000000e+00 -6.284162953038e-21 
3.800000000000e+00 1.288755128849e-21 
3.900000000000e+00 -2.803289040797e-22 
4.000000000000e+00 0.000000000000e+00 
 ZONE T="TIME=7.920000000000e+04"
0.000000000000e+00 0.000000000000e+00 
1.000000000000e-01 -2.644163836824e-25 
2.000000000000e-01 1.007401098710e-24 
3.000000000000e-01 1.458659383484e-24 
4.000000000000e-01 -4.793867401197e-23 
5.000000000000e-01 4.110048100901e-23 
6.000000000000e-01 9.051357261641e-22 
7.000000000000e-01 1.881852410572e-21 
8.000000000000e-01 8.022258423031e-22 
9.000000000000e-01 -1.528422812606e-21 
1.000000000000e+00 -2.187624091617e-21 
1.100000000000e+00 -1.146980441654e-21 
1.200000000000e+00 -1.974476127860e-22 
1.300000000000e+00 1.340368350017e-23 
1.400000000000e+00 8.196985526924e-22 
1.500000000000e+00 -6.230234452454e-21 
1.600000000000e+00 2.740527313374e-20 
1.700000000000e+00 -7.568464597384e-20 
1.800000000000e+00 -3.404652192115e-20 
1.900000000000e+00 2.136251828226e-18 
2.000000000000e+00 -1.646266894372e-17 
2.100000000000e+00 6.909275357628e-17 
2.200000000000e+00 4.435640633424e-17 
2.300000000000e+00 -3.852223157818e-15 
2.400000000000e+00 3.791918268656e-14 
2.500000000000e+00 -2.060700733657e-13 
2.600000000000e+00 1.636754345375e-12 
2.700000000000e+00 1.041939753626e-12 
2.800000000000e+00 6.298948428727e-14 
2.900000000000e+00 -2.255428144907e-14 
3.000000000000e+00 5.120243335077e-15 
3.100000000000e+00 -1.045087122493e-15 
3.200000000000e+00 1.987587278279e-16 
3.300000000000e+00 -4.576600496786e-17 
3.400000000000e+00 8.487690008217e-18 
3.500000000000e+00 -1.387005426231e-18 
3.600000000000e+00 1.406074842816e-19 
3.700000000000e+00 -1.928940600508e-20 
3.800000000000e+00 4.068294249551e-21 
3.900000000000e+00 -9.587318291237e-22 
4.000000000000e+00 0.000000000000e+00 
 ZONE T="TIME=8.640000000000e+04"
0.000000000000e+00 0.000000000000e+00 
1.000000000000e-01 -1.032724709877e-24 
2.000000000000e-01 3.914959940885e-24 
3.000000000000e-01 6.263272793051e-24 
4.000000000000e-01 -1.947414346535e-22 
5.000000000000e-01 1.683513584738e-22 
6.000000000000e-01 3.995223031788e-21 
7.000000000000e-01 9.358093557324e-21 
8.000000000000e-01 7.049791347868e-21 
9.000000000000e-01 -1.773983137555e-21 
1.000000000000e+00 -5.838838204675e-21 
1.100000000000e+00 -3.395093517297e-21 
1.200000000000e+00 -7.111856775514e-22 
1.300000000000e+00 2.663190782384e-22 
1.400000000000e+00 3.242669024275e-21 
1.500000000000e+00 -3.161746870799e-20 
1.600000000000e+00 1.601626005849e-19 
1.700000000000e+00 -5.437497946652e-19 
1.800000000000e+00 5.822308472653e-19 
1.900000000000e+00 8.721249671953e-18 
2.000000000000e+00 -8.612078812419e-17 
2.100000000000e+00 4.355176152119e-16 
2.200000000000e+00 -5.072762849940e-16 
2.300000000000e+00 -1.424322521501e-14 
2.400000000000e+00 1.498846948191e-13 
2.500000000000e+00 -7.396551540555e-13 
2.600000000000e+00 7.206689906653e-12 
2.700000000000e+00 3.765822826935e-12 
2.800000000000e+00 9.855688881475e-14 
2.900000000000e+00 -4.228112685381e-14 
3.000000000000e+00 7.914507660335e-15 
3.100000000000e+00 -1.121049945697e-15 
3.200000000000e+00 1.046590181908e-16 
3.300000000000e+00 -2.973853316673e-17 
3.400000000000e+00 -3.182390167418e-17 
3.500000000000e+00 8.184911018470e-18 
3.600000000000e+00 -1.718296339878e-18 
3.700000000000e+00 2.934372452076e-19 
3.800000000000e+00 -4.890026211488e-20 
3.900000000000e+00 8.391617193615e-21 
4.000000000000e+00 0.000000000000e+00 
 ZONE T="TIME=9.360000000000e+04"
0.000000000000e+00 0.000000000000e+00 
1.000000000000e-01 -4.018590102622e-24 
2.000000000000e-01 1.492525573126e-23 
3.000000000000e-01 2.880161217408e-23 
4.000000000000e-01 -8.051584311616e-22 
5.000000000000e-01 7.743504539423e-22 
6.000000000000e-01 1.885092415680e-20 
7.000000000000e-01 4.996808282305e-20 
8.000000000000e-01 5.359379024199e-20 
9.000000000000e-01 2.214353873536e-20 
1.000000000000e+00 -2.114379603372e-21 
1.100000000000e+00 -3.394792322039e-21 
1.200000000000e+00 -1.107864551428e-23 
1.300000000000e+00 2.838032093237e-21 
1.400000000000e+00 7.850569755364e-21 
1.500000000000e+00 -1.130934680795e-19 
1.600000000000e+00 6.469032819798e-19 
1.700000000000e+00 -2.466879248950e-18 
1.800000000000e+00 4.279116817821e-18 
1.900000000000e+00 2.667884168369e-17 
2.000000000000e+00 -3.248066093594e-16 
2.100000000000e+00 1.770736130031e-15 
2.200000000000e+00 -2.857853649392e-15 
2.300000000000e+00 -4.529965043756e-14 
2.400000000000e+00 4.501772079324e-13 
2.500000000000e+00 -1.713935283905e-12 
2.600000000000e+00 2.412169226152e-11 
2.700000000000e+00 1.163971137905e-11 
2.800000000000e+00 4.119327309593e-13 
2.900000000000e+00 -1.532396717030e-13 
3.000000000000e+00 2.838871248456e-14 
3.100000000000e+00 -4.163592997575e-15 
3.200000000000e+00 4.633481093062e-16 
3.300000000000e+00 -1.159472856299e-16 
3.400000000000e+00 -1.134476329116e-16 
3.500000000000e+00 2.262185994520e-17 
3.600000000000e+00 -3.780195258366e-18 
3.700000000000e+00 4.306051956116e-19 
3.800000000000e+00 -2.386297630801e-20 
3.900000000000e+00 -4.806856832708e-21 
4.000000000000e+00 0.000000000000e+00 
 ZONE T="TIME=1.008000000000e+05"
0.000000000000e+00 0.000000000000e+00 
1.000000000000e-01 -1.615823406719e-23 
2.000000000000e-01 5.843294182475e-23 
3.000000000000e-01 1.349665901254e-22 
4.000000000000e-01 -3.462752139301e-21 
5.000000000000e-01 4.108493363369e-21 
6.000000000000e-01 9.439552599462e-20 
7.000000000000e-01 2.743411594971e-19 
8.000000000000e-01 3.573520350162e-19 
9.000000000000e-01 2.511151798393e-19 
1.000000000000e+00 1.136989838729e-19 
1.100000000000e+00 5.127470533202e-20 
1.200000000000e+00 2.591415123487e-20 
1.300000000000e+00 2.167085710690e-20 
1.400000000000e+00 1.607383122247e-20 
1.500000000000e+00 -3.405966642441e-19 
1.600000000000e+00 2.149202893554e-18 
1.700000000000e+00 -8.758817914978e-18 
1.800000000000e+00 1.787461381211e-17 
1.900000000000e+00 7.377730085939e-17 
2.000000000000e+00 -1.027110279370e-15 
2.100000000000e+00 5.560495730432e-15 
2.200000000000e+00 -6.820993730099e-15 
2.300000000000e+00 -1.535393735017e-13 
2.400000000000e+00 1.243968825747e-12 
2.500000000000e+00 -2.773718839677e-12 
2.600000000000e+00 7.163685881665e-11 
2.700000000000e+00 3.155066250812e-11 
2.800000000000e+00 1.274288293941e-12 
2.900000000000e+00 -4.490276428117e-13 
3.000000000000e+00 8.116778352806e-14 
3.100000000000e+00 -1.147872505726e-14 
3.200000000000e+00 1.076132221268e-15 
3.300000000000e+00 -3.981088019035e-16 
3.400000000000e+00 -2.305334877696e-16 
3.500000000000e+00 4.201273060903e-17 
3.600000000000e+00 -7.141451401725e-18 
3.700000000000e+00 6.110143515163e-19 
3.800000000000e+00 4.753992856492e-20 
3.900000000000e+00 -3.610307260933e-20 
4.000000000000e+00 0.000000000000e+00 
 ZONE T="TIME=1.080000000000e+05"
0.000000000000e+00 0.000000000000e+00 
1.000000000000e-01 -6.802799979424e-23 
2.000000000000e-01 2.425782462346e-22 
3.000000000000e-01 6.033003212625e-22 
4.000000000000e-01 -1.536277173499e-20 
5.000000000000e-01 2.348359294878e-20 
6.000000000000e-01 4.806328410970e-19 
7.000000000000e-01 1.471441986356e-18 
8.000000000000e-01 2.119422097677e-18 
9.000000000000e-01 1.780844207796e-18 
1.000000000000e+00 1.052901933906e-18 
1.100000000000e+00 5.478284851944e-19 
1.200000000000e+00 2.655917644318e-19 
1.300000000000e+00 1.506788600276e-19 
1.400000000000e+00 5.315114784030e-20 
1.500000000000e+00 -9.487367160033e-19 
1.600000000000e+00 6.458183957180e-18 
1.700000000000e+00 -2.698519812299e-17 
1.800000000000e+00 5.561797878901e-17 
1.900000000000e+00 2.314097113941e-16 
2.000000000000e+00 -3.158169005589e-15 
2.100000000000e+00 1.610534125546e-14 
2.200000000000e+00 -8.158838275353e-15 
2.300000000000e+00 -5.239664852973e-13 
2.400000000000e+00 3.440023919224e-12 
2.500000000000e+00 -2.630609117950e-12 
2.600000000000e+00 2.021293477388e-10 
2.700000000000e+00 8.488447570841e-11 
2.800000000000e+00 2.702352648189e-12 
2.900000000000e+00 -1.050596792660e-12 
3.000000000000e+00 1.884603379255e-13 
3.100000000000e+00 -2.575410953893e-14 
3.200000000000e+00 2.076344922324e-15 
3.300000000000e+00 -1.646683955643e-15 
3.400000000000e+00 -4.180305999021e-16 
3.500000000000e+00 9.140733403184e-17 
3.600000000000e+00 -1.896094865661e-17 
3.700000000000e+00 1.990911528948e-18 
3.800000000000e+00 1.562022236953e-20 
3.900000000000e+00 -6.863437425582e-20 
4.000000000000e+00 0.000000000000e+00 
 ZONE T="TIME=1.152000000000e+05"
0.000000000000e+00 0.000000000000e+00 
1.000000000000e-01 -2.952482531577e-22 
2.000000000000e-01 1.065538140780e-21 
3.000000000000e-01 2.440445456708e-21 
4.000000000000e-01 -6.837530440190e-20 
5.000000000000e-01 1.332244086788e-19 
6.000000000000e-01 2.386253339236e-18 
7.000000000000e-01 7.468657958179e-18 
8.000000000000e-01 1.131932562305e-17 
9.000000000000e-01 1.031568106428e-17 
1.000000000000e+00 6.734840360872e-18 
1.100000000000e+00 3.729028726490e-18 
1.200000000000e+00 1.865125137544e-18 
1.300000000000e+00 9.562398243822e-19 
1.400000000000e+00 3.163310034153e-19 
1.500000000000e+00 -2.541113252999e-18 
1.600000000000e+00 1.874290108214e-17 
1.700000000000e+00 -7.907715647642e-17 
1.800000000000e+00 1.582353316342e-16 
1.900000000000e+00 7.521731776147e-16 
2.000000000000e+00 -9.676320807144e-15 
2.100000000000e+00 4.695547536493e-14 
2.200000000000e+00 -2.376027845264e-15 
2.300000000000e+00 -1.619210524248e-12 
2.400000000000e+00 9.264701013327e-12 
2.500000000000e+00 3.735573603968e-12 
2.600000000000e+00 5.426639816133e-10 
2.700000000000e+00 2.287558397888e-10 
2.800000000000e+00 6.330388894567e-12 
2.900000000000e+00 -2.716798218517e-12 
3.000000000000e+00 5.095239292252e-13 
3.100000000000e+00 -7.509050034609e-14 
3.200000000000e+00 7.905131653863e-15 
3.300000000000e+00 -5.507685273424e-15 
3.400000000000e+00 -1.342225888671e-15 
3.500000000000e+00 3.220993071215e-16 
3.600000000000e+00 -6.806745330793e-17 
3.700000000000e+00 8.772742274489e-18 
3.800000000000e+00 -6.553967125108e-19 
3.900000000000e+00 -3.994277877881e-20 
4.000000000000e+00 0.000000000000e+00 
 ZONE T="TIME=1.224000000000e+05"
0.000000000000e+00 0.000000000000e+00 
1.000000000000e-01 -1.282225953210e-21 
2.000000000000e-01 4.799891505737e-21 
3.000000000000e-01 8.508445504070e-21 
4.000000000000e-01 -2.967296445353e-19 
5.000000000000e-01 7.165215514658e-19 
6.000000000000e-01 1.126712392256e-17 
7.000000000000e-01 3.539659495669e-17 
8.000000000000e-01 5.500498713547e-17 
9.000000000000e-01 5.229655664409e-17 
1.000000000000e+00 3.595273666411e-17 
1.100000000000e+00 2.072896352370e-17 
1.200000000000e+00 1.073628801431e-17 
1.300000000000e+00 5.421767125572e-18 
1.400000000000e+00 1.920383463135e-18 
1.500000000000e+00 -6.216749920836e-18 
1.600000000000e+00 5.278379835449e-17 
1.700000000000e+00 -2.275138260463e-16 
1.800000000000e+00 4.680351437142e-16 
1.900000000000e+00 2.147989082693e-15 
2.000000000000e+00 -2.796580618551e-14 
2.100000000000e+00 1.339977662821e-13 
2.200000000000e+00 8.199608313715e-15 
2.300000000000e+00 -4.478044697429e-12 
2.400000000000e+00 2.351330175960e-11 
2.500000000000e+00 3.458799390736e-11 
2.600000000000e+00 1.368087240722e-09 
2.700000000000e+00 5.902626364287e-10 
2.800000000000e+00 1.905963169800e-11 
2.900000000000e+00 -7.894489489932e-12 
3.000000000000e+00 1.525487693859e-12 
3.100000000000e+00 -2.373718173978e-13 
3.200000000000e+00 2.841190434355e-14 
3.300000000000e+00 -1.432805649416e-14 
3.400000000000e+00 -4.566527884683e-15 
3.500000000000e+00 9.976296919120e-16 
3.600000000000e+00 -1.983721535658e-16 
3.700000000000e+00 2.560381715085e-17 
3.800000000000e+00 -2.068625942158e-18 
3.900000000000e+00 -5.572235424489e-20 
4.000000000000e+00 0.000000000000e+00 
 ZONE T="TIME=1.296000000000e+05"
0.000000000000e+00 0.000000000000e+00 
1.000000000000e-01 -5.424686435195e-21 