# vtk DataFile Version 3.0
Unstructured Grid from OpenGeoSys
ASCII
DATASET UNSTRUCTURED_GRID
FIELD TimesAndCycles 2
TIME 1 1 double
1.296000000000e+06
CYLCE 1 1 long
180
POINTS 16441 double
-1.000000000000e+00 0.000000000000e+00 -5.000000000000e+00
-9.750000000000e-01 0.000000000000e+00 -5.000000000000e+00
-9.500000000000e-01 0.000000000000e+00 -5.000000000000e+00
-9.250000000000e-01 0.000000000000e+00 -5.000000000000e+00
-9.000000000000e-01 0.000000000000e+00 -5.000000000000e+00
-8.750000000000e-01 0.000000000000e+00 -5.000000000000e+00
-8.500000000000e-01 0.000000000000e+00 -5.000000000000e+00
-8.250000000000e-01 0.000000000000e+00 -5.000000000000e+00
-8.000000000000e-01 0.000000000000e+00 -5.000000000000e+00
-7.750000000000e-01 0.000000000000e+00 -5.000000000000e+00
-7.500000000000e-01 0.000000000000e+00 -5.000000000000e+00
-7.250000000000e-01 0.000000000000e+00 -5.000000000000e+00
-7.000000000000e-01 0.000000000000e+00 -5.000000000000e+00
-6.750000000000e-01 0.000000000000e+00 -5.000000000000e+00
-6.500000000000e-01 0.000000000000e+00 -5.000000000000e+00
-6.250000000000e-01 0.000000000000e+00 -5.000000000000e+00
-6.000000000000e-01 0.000000000000e+00 -5.000000000000e+00
-5.750000000000e-01 0.000000000000e+00 -5.000000000000e+00
-5.500000000000e-01 0.000000000000e+00 -5.000000000000e+00
-5.250000000000e-01 0.000000000000e+00 -5.000000000000e+00
-5.000000000000e-01 0.000000000000e+00 -5.000000000000e+00
-4.750000000000e-01 0.000000000000e+00 -5.000000000000e+00
-4.500000000000e-01 0.000000000000e+00 -5.000000000000e+00
-4.250000000000e-01 0.000000000000e+00 -5.000000000000e+00
-4.000000000000e-01 0.000000000000e+00 -5.000000000000e+00
-3.750000000000e-01 0.000000000000e+00 -5.000000000000e+00
-3.500000000000e-01 0.000000000000e+00 -5.000000000000e+00
-3.250000000000e-01 0.000000000000e+00 -5.000000000000e+00
-3.000000000000e-01 0.000000000000e+00 -5.000000000000e+00
-2.750000000000e-01 0.000000000000e+00 -5.000000000000e+00
-2.500000000000e-01 0.000000000000e+00 -5.000000000000e+00
-2.250000000000e-01 0.000000000000e+00 -5.000000000000e+00
-2.000000000000e-01 0.000000000000e+00 -5.000000000000e+00
-1.750000000000e-01 0.000000000000e+00 -5.000000000000e+00
-1.500000000000e-01 0.000000000000e+00 -5.000000000000e+00
-1.250000000000e-01 0.000000000000e+00 -5.000000000000e+00
-1.000000000000e-01 0.000000000000e+00 -5.000000000000e+00
-7.500000000000e-02 0.000000000000e+00 -5.000000000000e+00
-5.000000000000e-02 0.000000000000e+00 -5.000000000000e+00
-2.500000000000e-02 0.000000000000e+00 -5.000000000000e+00
0.000000000000e+00 0.000000000000e+00 -5.000000000000e+00
2.500000000000e-02 0.000000000000e+00 -5.000000000000e+00
5.000000000000e-02 0.000000000000e+00 -5.000000000000e+00
7.500000000000e-02 0.000000000000e+00 -5.000000000000e+00
1.000000000000e-01 0.000000000000e+00 -5.000000000000e+00
1.250000000000e-01 0.000000000000e+00 -5.000000000000e+00
1.500000000000e-01 0.000000000000e+00 -5.000000000000e+00
1.750000000000e-01 0.000000000000e+00 -5.000000000000e+00
2.000000000000e-01 0.000000000000e+00 -5.000000000000e+00
2.250000000000e-01 0.000000000000e+00 -5.000000000000e+00
2.500000000000e-01 0.000000000000e+00 -5.000000000000e+00
2.750000000000e-01 0.000000000000e+00 -5.000000000000e+00
3.000000000000e-01 0.000000000000e+00 -5.000000000000e+00
3.250000000000e-01 0.000000000000e+00 -5.000000000000e+00
3.500000000000e-01 0.000000000000e+00 -5.000000000000e+00
3.750000000000e-01 0.000000000000e+00 -5.000000000000e+00
4.000000000000e-01 0.000000000000e+00 -5.000000000000e+00
4.250000000000e-01 0.000000000000e+00 -5.000000000000e+00
4.500000000000e-01 0.000000000000e+00 -5.000000000000e+00
4.750000000000e-01 0.000000000000e+00 -5.000000000000e+00
5.000000000000e-01 0.000000000000e+00 -5.000000000000e+00
5.250000000000e-01 0.000000000000e+00 -5.000000000000e+00
5.500000000000e-01 0.000000000000e+00 -5.000000000000e+00
5.750000000000e-01 0.000000000000e+00 -5.000000000000e+00
6.000000000000e-01 0.000000000000e+00 -5.000000000000e+00
6.250000000000e-01 0.000000000000e+00 -5.000000000000e+00
6.500000000000e-01 0.000000000000e+00 -5.000000000000e+00
6.750000000000e-01 0.000000000000e+00 -5.000000000000e+00
7.000000000000e-01 0.000000000000e+00 -5.000000000000e+00
7.250000000000e-01 0.000000000000e+00 -5.000000000000e+00
7.500000000000e-01 0.000000000000e+00 -5.000000000000e+00
7.750000000000e-01 0.000000000000e+00 -5.000000000000e+00
8.000000000000e-01 0.000000000000e+00 -5.000000000000e+00
8.250000000000e-01 0.000000000000e+00 -5.000000000000e+00
8.500000000000e-01 0.000000000000e+00 -5.000000000000e+00
8.750000000000e-01 0.000000000000e+00 -5.000000000000e+00
9.000000000000e-01 0.000000000000e+00 -5.000000000000e+00
9.250000000000e-01 0.000000000000e+00 -5.000000000000e+00
9.500000000000e-01 0.000000000000e+00 -5.000000000000e+00
9.750000000000e-01 0.000000000000e+00 -5.000000000000e+00
1.000000000000e+00 0.000000000000e+00 -5.000000000000e+00
1.025000000000e+00 0.000000000000e+00 -5.000000000000e+00
1.050000000000e+00 0.000000000000e+00 -5.000000000000e+00
1.075000000000e+00 0.000000000000e+00 -5.000000000000e+00
1.100000000000e+00 0.000000000000e+00 -5.000000000000e+00
1.125000000000e+00 0.000000000000e+00 -5.000000000000e+00
1.150000000000e+00 0.000000000000e+00 -5.000000000000e+00
1.175000000000e+00 0.000000000000e+00 -5.000000000000e+00
1.200000000000e+00 0.000000000000e+00 -5.000000000000e+00
1.225000000000e+00 0.000000000000e+00 -5.000000000000e+00
1.250000000000e+00 0.000000000000e+00 -5.000000000000e+00
1.275000000000e+00 0.000000000000e+00 -5.000000000000e+00
1.300000000000e+00 0.000000000000e+00 -5.000000000000e+00
1.325000000000e+00 0.000000000000e+00 -5.000000000000e+00
1.350000000000e+00 0.000000000000e+00 -5.000000000000e+00
1.375000000000e+00 0.000000000000e+00 -5.000000000000e+00
1.400000000000e+00 0.000000000000e+00 -5.000000000000e+00
1.425000000000e+00 0.000000000000e+00 -5.000000000000e+00
1.450000000000e+00 0.000000000000e+00 -5.000000000000e+00
1.475000000000e+00 0.000000000000e+00 -5.000000000000e+00
1.500000000000e+00 0.000000000000e+00 -5.000000000000e+00
1.525000000000e+00 0.000000000000e+00 -5.000000000000e+00
1.550000000000e+00 0.000000000000e+00 -5.000000000000e+00
1.575000000000e+00 0.000000000000e+00 -5.000000000000e+00
1.600000000000e+00 0.000000000000e+00 -5.000000000000e+00
1.625000000000e+00 0.000000000000e+00 -5.000000000000e+00
1.650000000000e+00 0.000000000000e+00 -5.000000000000e+00
1.675000000000e+00 0.000000000000e+00 -5.000000000000e+00
1.700000000000e+00 0.000000000000e+00 -5.000000000000e+00
1.725000000000e+00 0.000000000000e+00 -5.000000000000e+00
1.750000000000e+00 0.000000000000e+00 -5.000000000000e+00
1.775000000000e+00 0.000000000000e+00 -5.000000000000e+00
1.800000000000e+00 0.000000000000e+00 -5.000000000000e+00
1.825000000000e+00 0.000000000000e+00 -5.000000000000e+00
1.850000000000e+00 0.000000000000e+00 -5.000000000000e+00
1.875000000000e+00 0.000000000000e+00 -5.000000000000e+00
1.900000000000e+00 0.000000000000e+00 -5.000000000000e+00
1.925000000000e+00 0.000000000000e+00 -5.000000000000e+00
1.950000000000e+00 0.000000000000e+00 -5.000000000000e+00
1.975000000000e+00 0.000000000000e+00 -5.000000000000e+00
2.000000000000e+00 0.000000000000e+00 -5.000000000000e+00
2.025000000000e+00 0.000000000000e+00 -5.000000000000e+00
2.050000000000e+00 0.000000000000e+00 -5.000000000000e+00
2.075000000000e+00 0.000000000000e+00 -5.000000000000e+00
2.100000000000e+00 0.000000000000e+00 -5.000000000000e+00
2.125000000000e+00 0.000000000000e+00 -5.000000000000e+00
2.150000000000e+00 0.000000000000e+00 -5.000000000000e+00
2.175000000000e+00 0.000000000000e+00 -5.000000000000e+00
2.200000000000e+00 0.000000000000e+00 -5.000000000000e+00
2.225000000000e+00 0.000000000000e+00 -5.000000000000e+00
2.250000000000e+00 0.000000000000e+00 -5.000000000000e+00
2.275000000000e+00 0.000000000000e+00 -5.000000000000e+00
2.300000000000e+00 0.000000000000e+00 -5.000000000000e+00
2.325000000000e+00 0.000000000000e+00 -5.000000000000e+00
2.350000000000e+00 0.000000000000e+00 -5.000000000000e+00
2.375000000000e+00 0.000000000000e+00 -5.000000000000e+00
2.400000000000e+00 0.000000000000e+00 -5.000000000000e+00
2.425000000000e+00 0.000000000000e+00 -5.000000000000e+00
2.450000000000e+00 0.000000000000e+00 -5.000000000000e+00
2.475000000000e+00 0.000000000000e+00 -5.000000000000e+00
2.500000000000e+00 0.000000000000e+00 -5.000000000000e+00
2.525000000000e+00 0.000000000000e+00 -5.000000000000e+00
2.550000000000e+00 0.000000000000e+00 -5.000000000000e+00
2.575000000000e+00 0.000000000000e+00 -5.000000000000e+00
2.600000000000e+00 0.000000000000e+00 -5.000000000000e+00
2.625000000000e+00 0.000000000000e+00 -5.000000000000e+00
2.650000000000e+00 0.000000000000e+00 -5.000000000000e+00
2.675000000000e+00 0.000000000000e+00 -5.000000000000e+00
2.700000000000e+00 0.000000000000e+00 -5.000000000000e+00
2.725000000000e+00 0.000000000000e+00 -5.000000000000e+00
2.750000000000e+00 0.000000000000e+00 -5.000000000000e+00
2.775000000000e+00 0.000000000000e+00 -5.000000000000e+00
2.800000000000e+00 0.000000000000e+00 -5.000000000000e+00
2.825000000000e+00 0.000000000000e+00 -5.000000000000e+00
2.850000000000e+00 0.000000000000e+00 -5.000000000000e+00
2.875000000000e+00 0.000000000000e+00 -5.000000000000e+00
2.900000000000e+00 0.000000000000e+00 -5.000000000000e+00
2.925000000000e+00 0.000000000000e+00 -5.000000000000e+00
2.950000000000e+00 0.000000000000e+00 -5.000000000000e+00
2.975000000000e+00 0.000000000000e+00 -5.000000000000e+00
3.000000000000e+00 0.000000000000e+00 -5.000000000000e+00
3.025000000000e+00 0.000000000000e+00 -5.000000000000e+00
3.050000000000e+00 0.000000000000e+00 -5.000000000000e+00
3.075000000000e+00 0.000000000000e+00 -5.000000000000e+00
3.100000000000e+00 0.000000000000e+00 -5.000000000000e+00
3.125000000000e+00 0.000000000000e+00 -5.000000000000e+00
3.150000000000e+00 0.000000000000e+00 -5.000000000000e+00
3.175000000000e+00 0.000000000000e+00 -5.000000000000e+00
[...]
POINT_DATA 16441
SCALARS HEAD double 1
LOOKUP_TABLE default
1.000000000000e-02
9.981562816850e-03
9.961913392113e-03
9.940974935504e-03
9.918691372931e-03
9.895027941825e-03
9.869972461906e-03
9.843536838823e-03
9.815758464882e-03
9.786701246080e-03
9.756456033736e-03
9.725140286015e-03
9.692896836751e-03
9.659891708355e-03
9.626310971376e-03
9.592356721956e-03
9.558242315043e-03
9.524187049947e-03
9.490410550119e-03
9.457127106247e-03
9.424540258027e-03
9.392837874600e-03
9.362187958210e-03
9.332735343963e-03
9.304599405882e-03
9.277872812096e-03
9.252621306301e-03
9.228884434108e-03
9.206677086159e-03
9.185991697361e-03
9.166800924487e-03
9.149060621814e-03
9.132712944546e-03
9.117689429609e-03
9.103913929692e-03
9.091305305945e-03
9.079779814644e-03
9.069253151019e-03
9.059642137737e-03
9.050866065336e-03
9.042847706704e-03
9.035514037917e-03
9.028796703557e-03
9.022632267037e-03
9.016962285980e-03
9.011733250301e-03
9.006896416894e-03
9.002407570419e-03
8.998226734977e-03
8.994317856935e-03
8.990648474872e-03
8.987189388892e-03
8.983914338282e-03
8.980799693813e-03
8.977824168790e-03
8.974968551264e-03
8.972215458504e-03
8.969549113847e-03
8.966955145416e-03
8.964420405666e-03
8.961932810499e-03
8.959481196503e-03
8.957055194811e-03
8.954645120103e-03
8.952241873320e-03
8.949836856749e-03
8.947421900224e-03
8.944989197324e-03
8.942531250521e-03
8.940040824367e-03
8.937510905884e-03
8.934934671409e-03
8.932305459258e-03
8.929616747584e-03
8.926862136929e-03
8.924035336979e-03
8.921130157100e-03
8.918140500262e-03
8.915060360001e-03
8.911883820074e-03
8.908605056524e-03
8.905218341835e-03
8.901718050922e-03
8.898098668657e-03
8.894354798682e-03
8.890481173204e-03
8.886472663509e-03
8.882324290872e-03
8.878031237558e-03
8.873588857567e-03
8.868992686744e-03
8.864238451869e-03
8.859322078292e-03
8.854239695652e-03
8.848987641192e-03
8.843562460151e-03
8.837960902699e-03
8.832179916853e-03
8.826216636815e-03
8.820068366175e-03
8.813732555434e-03
8.807206773334e-03
8.800488671541e-03
8.793575942272e-03
8.786466268562e-03
8.779157266973e-03
8.771646422654e-03
8.763931016858e-03
8.756008047152e-03
8.747874140796e-03
8.739525461981e-03
8.730957613866e-03
8.722165536651e-03
8.713143403207e-03
8.703884514134e-03
8.694381194434e-03
8.684624694369e-03
8.674605097437e-03
8.664311238738e-03
8.653730637374e-03
8.642849446832e-03
8.631652427575e-03
8.620122946248e-03
8.608243006043e-03
8.595993312752e-03
8.583353380892e-03
8.570301683998e-03
8.556815852694e-03
8.542872923474e-03
8.528449640241e-03
8.513522809555e-03
8.498069709235e-03
8.482068548446e-03
8.465498975757e-03
8.448342629814e-03
8.430583725388e-03
8.412209665608e-03
8.393211669240e-03
8.373585400077e-03
8.353331583764e-03
8.332456595974e-03
8.310973004705e-03
8.288900048705e-03
8.266264033763e-03
8.243098628838e-03
8.219445044841e-03
8.195352080353e-03
8.170876020730e-03
8.146080379875e-03
8.121035477484e-03
8.095817848760e-03
8.070509488292e-03
8.045196935027e-03
8.019970210746e-03
7.994921630073e-03
7.970144505583e-03
7.945731776641e-03
7.921774595140e-03
7.898360904798e-03
7.875574052968e-03
7.853491474837e-03
7.832183489052e-03
7.811712241396e-03
7.792130828861e-03
7.773482630716e-03
7.755800865913e-03
7.739108387941e-03
7.723417719327e-03
7.708731318920e-03
7.695042066391e-03
7.682333940469e-03
7.670582860870e-03
7.659757658905e-03
7.649821138668e-03
7.640731189616e-03
7.632441912203e-03
7.624904720871e-03
7.618069392816e-03
7.611885036264e-03
7.606300957949e-03
7.601267415842e-03
7.596736249367e-03
7.592661385144e-03
7.588999221354e-03
7.585708898005e-03
7.582752463553e-03
7.580094950472e-03
7.577704373607e-03
7.575551665440e-03
7.573610562071e-03
7.571857452762e-03
7.570271204611e-03
7.568832972353e-03
7.567526001647e-03
7.566335432571e-03
7.565248108490e-03
7.564252394058e-03
7.563338004919e-03
7.562495850611e-03
7.561717891396e-03
7.560997009069e-03
7.560326891338e-03
7.559701929039e-03
7.559117125214e-03
7.558568015005e-03
7.558050595205e-03
7.557561262384e-03
7.557096758478e-03
7.556654122853e-03
7.556230649891e-03
7.555823851245e-03
7.555431421972e-03
7.555051209850e-03
7.554681187220e-03
7.554319424765e-03
7.553964066679e-03
7.553613306683e-03
7.553265364401e-03
7.552918461566e-03
7.552570797552e-03
7.552220523659e-03
7.551865715571e-03
7.551504343323e-03
7.551134238026e-03
7.550753054525e-03
7.550358228994e-03
7.549946930368e-03
7.549516004282e-03
7.549061908030e-03
7.548580634740e-03
7.548067624766e-03
7.547517661905e-03
7.546924751760e-03
7.546281979186e-03
7.545581341363e-03
7.544813552691e-03
7.543967817358e-03
7.543031565151e-03
7.541990145955e-03
7.540826478412e-03
7.539520648542e-03
7.538049454777e-03
7.536385897057e-03
7.534498609368e-03
7.532351237612e-03
7.529901768023e-03
7.527101815638e-03
7.523895887533e-03
7.520220641796e-03
7.516004170125e-03
7.511165339558e-03
7.505613236463e-03
7.499246763163e-03
7.491954443584e-03
7.483614498299e-03
7.474095250293e-03
7.463255919822e-03
7.450947858997e-03
7.437016263708e-03
7.421302381946e-03
7.403646213858e-03
7.383889670857e-03
7.361880130291e-03
7.337474290654e-03
7.310542202516e-03
7.280971325032e-03
7.248670439638e-03
7.213573243639e-03
7.175641448517e-03
7.134867221606e-03
7.091274834988e-03
7.044921420757e-03
6.995896774670e-03
6.944322197677e-03
6.890348413294e-03
6.834152644545e-03
6.775934974093e-03
6.715914142329e-03
6.654322958829e-03
6.591403511867e-03
6.527402358669e-03
6.462565866946e-03
6.397135857576e-03
6.331345671500e-03
6.265416753269e-03
6.199555811728e-03
6.133952587230e-03
6.068778226249e-03
6.004184239824e-03
5.940302002480e-03
5.877242733750e-03
5.815097894932e-03
5.753939928936e-03
5.693823270363e-03
5.634785555640e-03
5.576848968163e-03
5.520021660343e-03
5.464299202430e-03
5.409666016338e-03
5.356096761054e-03
5.303557644068e-03
5.252007640460e-03
5.201399607601e-03
5.151681288819e-03
5.102796203855e-03
5.054684427516e-03
5.007283260670e-03
4.960527799806e-03
4.914351412793e-03
4.868686129402e-03
4.823462955706e-03
4.778612121660e-03
4.734063271155e-03
4.689745603699e-03
4.645587976552e-03
4.601518975847e-03
4.557466964856e-03
4.513360117210e-03
4.469126442514e-03
4.424693811522e-03
4.379989987693e-03
4.334942671701e-03
4.289479565188e-03
4.243528459771e-03
4.197017357025e-03
4.149874624815e-03
4.102029194942e-03
4.053410806591e-03
4.003950299458e-03
3.953579959717e-03
3.902233921109e-03
3.849848622410e-03
3.796363321317e-03
3.741720663429e-03
3.685867303438e-03
3.628754573947e-03
3.570339195483e-03
3.510584019361e-03
3.449458793036e-03
3.386940935629e-03
3.323016309381e-03
3.257679971046e-03
3.190936885721e-03
3.122802584387e-03
3.053303745690e-03
2.982478682157e-03
2.910377711376e-03
2.837063393534e-03
2.762610618335e-03
2.687106526580e-03
2.610650254641e-03
2.533352493692e-03
2.455334859664e-03
2.376729074559e-03
2.297675964641e-03
2.218324286124e-03
2.138829394037e-03
2.059351774728e-03
1.980055466917e-03
1.901106399940e-03
1.822670680855e-03
1.744912864099e-03
1.667994238442e-03
1.592071165863e-03
1.517293505785e-03
1.443803155830e-03
1.371732736951e-03
1.301204446701e-03
1.232329099530e-03
1.165205367728e-03
1.099919230993e-03
1.036543637010e-03
9.751383699222e-04
9.157501184857e-04
8.584127311312e-04
8.031476412801e-04
7.499644431593e-04
6.988615960994e-04
6.498272339061e-04
6.028400553244e-04
5.578702718441e-04
5.148805900177e-04
4.738272069934e-04
4.346607999961e-04
3.973274928938e-04
3.617697856766e-04
3.279274355420e-04
2.957382812582e-04
2.651390055255e-04
2.360658331689e-04
2.084551662271e-04
1.822441604892e-04
1.573712520040e-04
1.337766469958e-04
1.114027951765e-04
9.019487591460e-05
7.010134126237e-05
5.107458331722e-05
3.307183275729e-05
1.605646353878e-05
0.000000000000e+00
1.000000000000e-02
9.981888401557e-03
9.962488953439e-03
9.941744227572e-03
9.919611033564e-03
9.896063357626e-03
9.871095069200e-03
9.844722340132e-03
9.816985655680e-03
9.787951266770e-03
9.757711928695e-03
9.726386788270e-03
9.694120316379e-03
9.661080232910e-03
9.627454432281e-03
9.593446984921e-03
9.559273357006e-03
9.525155050834e-03
9.491313915180e-03
9.457966403631e-03
9.425318065989e-03
9.393558542448e-03
9.362857293800e-03
9.333360247454e-03
9.305187473917e-03
9.278431938275e-03
9.253159302809e-03
9.229408696029e-03
9.207194314912e-03
9.186507693631e-03
9.167320454694e-03
9.149587356303e-03
9.133249460804e-03
9.118237270223e-03
9.104473702621e-03
9.091876813947e-03
9.080362201102e-03
9.069845050770e-03
9.060241823470e-03
9.051471582331e-03
9.043456990997e-03
9.036125015064e-03
9.029407366978e-03
9.023240736373e-03
9.017566846911e-03
9.012332377985e-03
9.007488785514e-03
9.002992051439e-03
8.998802386624e-03
8.994883907176e-03
8.991204299901e-03
8.987734488763e-03
8.984448311047e-03
8.981322209177e-03
8.978334942051e-03
8.975467318069e-03
8.972701950763e-03
8.970023037026e-03
8.967416157295e-03
8.964868096608e-03
8.962366685213e-03
8.959900657251e-03
8.957459526017e-03
8.955033474303e-03
8.952613258408e-03
8.950190124466e-03
8.947755735857e-03
8.945302110581e-03
8.942821567543e-03
8.940306680859e-03
8.937750241313e-03
8.935145224257e-03
8.932484763270e-03
8.929762128999e-03
8.926970712650e-03
8.924104013676e-03
8.921155631239e-03
8.918119259095e-03
8.914988683573e-03
8.911757784351e-03
8.908420537789e-03
8.904971022556e-03
8.901403427330e-03
8.897712060356e-03
8.893891360623e-03
8.889935910428e-03
8.885840449066e-03
8.881599887359e-03
8.877209322701e-03
8.872664054251e-03
8.867959597851e-03
8.863091700216e-03
8.858056351843e-03
8.852849798081e-03
8.847468547708e-03
8.841909378340e-03
8.836169337941e-03
8.830245741691e-03
8.824136163439e-03
8.817838421000e-03
8.811350554557e-03
8.804670797506e-03
8.797797539138e-03
8.790729278674e-03
8.783464570283e-03
8.776001958882e-03
8.768339906678e-03
8.760476710635e-03
8.752410411257e-03
8.744138693314e-03
8.735658779424e-03
8.726967317656e-03
8.718060264609e-03
8.708932765752e-03
8.699579035124e-03
8.689992236791e-03
8.680164370872e-03
8.670086167224e-03
8.659746990277e-03
8.649134758824e-03
8.638235884900e-03
8.627035236157e-03
8.615516126371e-03
8.603660338825e-03
8.591448187389e-03
8.578858619952e-03
8.565869368623e-03
8.552457150637e-03
8.538597923245e-03
8.524267194930e-03
8.509440394179e-03
8.494093295675e-03
8.478202502139e-03
8.461745978317e-03
8.444703631609e-03
8.427057931825e-03
8.408794560381e-03
8.389903077213e-03
8.370377591601e-03
8.350217421313e-03
8.329427722819e-03
8.308020074094e-03
8.286012990646e-03
8.263432355045e-03
8.240311740430e-03
8.216692609308e-03
8.192624370494e-03
8.168164279290e-03
8.143377169067e-03
8.118335006163e-03
8.093116264601e-03
8.067805122255e-03
8.042490485877e-03
8.017264858515e-03
7.992223069133e-03
7.967460890450e-03
7.943073576821e-03
7.919154359000e-03
7.895792936632e-03
7.873074011816e-03
7.851075907931e-03
7.829869316805e-03
7.809516214156e-03
7.790068978073e-03
7.771569738252e-03
7.754049975126e-03
7.737530378266e-03
7.722020963128e-03
7.707521434938e-03
7.694021778805e-03
7.681503046795e-03
7.669938305934e-03
7.659293706570e-03
7.649529628174e-03
7.640601859685e-03
7.632462773676e-03
7.625062457690e-03
7.618349771567e-03
7.612273306107e-03
7.606782225374e-03
7.601826981887e-03
7.597359900545e-03
7.593335632883e-03
7.589711488117e-03
7.586447651162e-03
7.583507300383e-03
7.580856639408e-03
7.578464857872e-03
7.576304035749e-03
7.574349005097e-03
7.572577181694e-03
7.570968377552e-03
7.569504603505e-03
7.568169869416e-03
7.566949987885e-03
7.565832385832e-03
7.564805927039e-03
7.563860747603e-03
7.562988105343e-03
7.562180243482e-03
7.561430268370e-03
7.560732040639e-03
7.560080078877e-03
7.559469474792e-03
7.558895818704e-03
7.558355134238e-03
7.557843821064e-03
7.557358604631e-03
7.556896491874e-03
7.556454732003e-03
7.556030781514e-03
7.555622272692e-03
7.555226984913e-03
7.554842818143e-03
7.554467768063e-03
7.554099902319e-03
7.553737337372e-03
7.553378215513e-03
7.553020681528e-03
7.552662858545e-03
7.552302822531e-03
7.551938574889e-03
7.551568012506e-03
7.551188894570e-03
7.550798805332e-03
7.550395111899e-03
7.549974915968e-03
7.549534998255e-03
7.549071754174e-03
7.548581119062e-03
7.548058480995e-03
7.547498578947e-03
7.546895383689e-03
7.546241958494e-03
7.545530296328e-03
7.544751129860e-03
7.543893710255e-03
7.542945550467e-03
7.541892128549e-03
7.540716546510e-03
7.539399140477e-03
7.537917038507e-03
7.536243663406e-03
7.534348179514e-03
7.532194884685e-03
7.529742551804e-03
7.526943728169e-03
7.523744006088e-03
7.520081283956e-03
7.515885043947e-03
7.511075679882e-03
7.505563916604e-03
7.499250369694e-03
7.492025300833e-03
7.483768628879e-03
7.474350258651e-03
7.463630787617e-03
7.451462644316e-03
7.437691700595e-03
7.422159382447e-03
7.404705281429e-03
7.385170241105e-03
7.363399862084e-03
7.339248336917e-03
7.312582494925e-03
7.283285909634e-03
7.251262900725e-03
7.216442250731e-03
7.178780456075e-03
7.138264343366e-03
7.094912905232e-03
7.048778244058e-03
6.999945554720e-03
6.948532125525e-03
6.894685386568e-03
6.838580082737e-03
6.780414691055e-03
6.720407236029e-03
6.658790680008e-03
6.595808077148e-03
6.531707679440e-03
6.466738172295e-03
6.401144197098e-03
6.335162291272e-03
6.269017345215e-03
6.202919642544e-03
6.137062517781e-03
6.071620635764e-03
6.006748871273e-03
5.942581746404e-03
5.879233367594e-03
5.816797793928e-03
5.755349762915e-03
5.694945698884e-03
5.635624931571e-03
5.577411057607e-03
5.520313384670e-03
5.464328406169e-03
5.409441263004e-03
5.355627157517e-03
5.302852692909e-03
5.251077118865e-03
5.200253470668e-03
5.150329594732e-03
5.101249058096e-03
5.052951943165e-03
5.005375531848e-03
4.958454885377e-03
4.912123327596e-03
4.866312840455e-03
4.820954381029e-03
4.775978129582e-03
4.731313678207e-03
4.686890169386e-03
4.642636393543e-03
4.598480854323e-03
4.554351809954e-03
4.510177298713e-03
4.465885156150e-03
4.421403031423e-03
4.376658409795e-03
4.331578648082e-03
4.286091029596e-03
4.240122844832e-03
4.193601503915e-03
4.146454686462e-03
4.098610534157e-03
4.049997890835e-03
4.000546594318e-03
3.950187823491e-03
3.898854503260e-03
3.846481768955e-03
3.793007490529e-03
3.738372855464e-03
3.682523007691e-03
3.625407738030e-03
3.566982219722e-03
3.507207780572e-03
3.446052701076e-03
3.383493025781e-03
3.319513373049e-03
3.254107726454e-03
3.187280189366e-03
3.119045682882e-03
3.049430566371e-03
2.978473159451e-03
2.906224144427e-03
2.832746829121e-03
2.758117251598e-03
2.682424110670e-03
2.605768509214e-03
2.528263501097e-03
2.450033437048e-03
2.371213109726e-03
2.291946703668e-03
2.212386561298e-03
2.132691781753e-03
2.053026674601e-03
1.973559095380e-03
1.894458694073e-03
1.815895110964e-03
1.738036156576e-03
1.661046013513e-03
1.585083497863e-03
1.510300416441e-03
1.436840053487e-03
1.364835816724e-03
1.294410067914e-03
1.225673157611e-03
1.158722677767e-03
1.093642939565e-03
1.030504677559e-03
9.693649751410e-04
9.102674007762e-04
8.532423395317e-04
7.983075003450e-04
7.454685763158e-04
6.947200331249e-04
6.460459994897e-04
5.994212333053e-04
5.548121377182e-04
5.121778027214e-04
4.714710498102e-04
4.326394596607e-04
3.956263655341e-04
3.603717980367e-04
3.268133698539e-04
2.948870920092e-04
2.645281159997e-04
2.356713987459e-04
2.082522896176e-04
1.822070408152e-04
1.574732440276e-04
1.339901974817e-04
1.116992080417e-04
9.054383253235e-05
7.047006015145e-05
5.142643206227e-05
3.336408167567e-05
1.623665292215e-05
0.000000000000e+00
1.000000000000e-02
9.982376192694e-03
9.963388701802e-03
9.942998368553e-03
9.921176624324e-03
9.897908880937e-03
9.873197651515e-03
9.847065333439e-03
9.819556544376e-03
9.790739877725e-03
9.760708936417e-03
9.729582514667e-03
9.697503825577e-03
9.664638716893e-03
9.631172874452e-03
9.597308078049e-03
9.563257641463e-03
9.529241230365e-03
9.495479301968e-03
9.462187442893e-03
9.429570892802e-03
9.397819529373e-03
9.367103556247e-03
9.337570083303e-03
9.309340723513e-03
9.282510259537e-03
9.257146363081e-03
9.233290287189e-03
9.210958401124e-03
9.190144402278e-03
9.170822020940e-03
9.152948030824e-03
9.136465388971e-03
9.121306349771e-03
9.107395425721e-03
9.094652098749e-03
9.082993217218e-03
9.072335042712e-03
9.062594935720e-03
9.053692689349e-03
9.045551535123e-03
9.038098854740e-03
9.031266637249e-03
9.024991722987e-03
9.019215874788e-03
9.013885714205e-03
9.008952556501e-03
9.004372173547e-03
9.000104508987e-03
8.996113365446e-03
8.992366079320e-03
8.988833194953e-03
8.985488146889e-03
8.982306956196e-03
8.979267944830e-03
8.976351470323e-03
8.973539681850e-03
8.970816297823e-03
8.968166404526e-03
8.965576274864e-03
8.963033206072e-03
8.960525375055e-03
8.958041710038e-03
8.955571777181e-03
8.953105680900e-03
8.950633976739e-03
8.948147595704e-03
8.945637779113e-03
8.943096023102e-03
8.940514032031e-03
8.937883680122e-03
8.935196980737e-03
8.932446062764e-03
8.929623153645e-03
8.926720568593e-03
8.923730705606e-03
8.920646045874e-03
8.917459159195e-03
8.914162714028e-03
8.910749491773e-03
8.907212404889e-03
8.903544518403e-03
8.899739074386e-03
8.895789518884e-03
8.891689530813e-03
8.887433052263e-03
8.883014319613e-03
8.878427894838e-03
8.873668696333e-03
8.868732028545e-03
8.863613609662e-03
8.858309596577e-03
8.852816606308e-03
8.847131733066e-03
8.841252560098e-03
8.835177165506e-03
8.828904121209e-03
8.822432484285e-03
8.815761779985e-03
8.808891975775e-03
8.801823445876e-03
8.794556925892e-03
8.787093457225e-03
8.779434321154e-03
8.771580962584e-03
8.763534903669e-03
8.755297647649e-03
8.746870573436e-03
8.738254821649e-03
8.729451172964e-03
8.720459919834e-03
8.711280732780e-03
8.701912522676e-03
8.692353300619e-03
8.682600037197e-03
8.672648523234e-03
8.662493234330e-03
8.652127201862e-03
8.641541893448e-03
8.630727106269e-03
8.619670877069e-03
8.608359413102e-03
8.596777048733e-03
8.584906232823e-03
8.572727552404e-03
8.560219798409e-03
8.547360079376e-03
8.534123988954e-03
8.520485832792e-03
8.506418919764e-03
8.491895921580e-03
8.476889303540e-03
8.461371827486e-03
8.445317125908e-03
8.428700343669e-03
8.411498840957e-03
8.393692947952e-03
8.375266758334e-03
8.356208945387e-03
8.336513581104e-03
8.316180935612e-03
8.295218231641e-03
8.273640326689e-03
8.251470294434e-03
8.228739876743e-03
8.205489778684e-03
8.181769781260e-03
8.157638650310e-03
8.133163825072e-03
8.108420876312e-03
8.083492731459e-03
8.058468672637e-03
8.033443122491e-03
8.008514241939e-03
7.983782372843e-03
7.959348366691e-03
7.935311847145e-03
7.911769459238e-03
7.888813160746e-03
7.866528611411e-03
7.844993713222e-03
7.824277349735e-03
7.804438364745e-03
7.785524810867e-03
7.767573487179e-03
7.750609772879e-03
7.734647751455e-03
7.719690608076e-03
7.705731272334e-03
7.692753269899e-03
7.680731740275e-03
7.669634574193e-03
7.659423623057e-03
7.650055934318e-03
7.641484970237e-03
7.633661772884e-03
7.626536044819e-03
7.620057122178e-03
7.614174824385e-03
7.608840171816e-03
7.604005969311e-03
7.599627258902e-03
7.595661649665e-03
7.592069535820e-03
7.588814216452e-03
7.585861931320e-03
7.583181827517e-03
7.580745871290e-03
7.578528718344e-03
7.576507554626e-03
7.574661918014e-03
7.572973509720e-03
7.571426002572e-03
7.570004851835e-03
7.568697112826e-03
7.567491268383e-03
7.566377068178e-03
7.565345381061e-03
7.564388060875e-03
7.563497825715e-03
7.562668150157e-03
7.561893169728e-03
7.561167596702e-03
7.560486646198e-03
7.559845971483e-03
7.559241607426e-03
7.558669921040e-03
7.558127568119e-03
7.557611455037e-03
7.557118704867e-03
7.556646627031e-03
7.556192689789e-03
7.555754494931e-03
7.555329754089e-03
7.554916266169e-03
7.554511895403e-03
7.554114549580e-03
7.553722158008e-03
7.553332648786e-03
7.552943924926e-03
7.552553838866e-03
7.552160164858e-03
7.551760568678e-03
7.551352574009e-03
7.550933524793e-03
7.550500542714e-03
7.550050478862e-03
7.549579858486e-03
7.549084817541e-03
7.548561029587e-03
7.548003621326e-03
7.547407074855e-03
7.546765114418e-03
7.546070575156e-03
7.545315251071e-03
7.544489719080e-03
7.543583135797e-03
7.542583003395e-03
7.541474900773e-03
7.540242176181e-03
7.538865597598e-03
7.537322957556e-03
7.535588629781e-03
7.533633076217e-03
7.531422304616e-03
7.528917279248e-03
7.526073290299e-03