 TITLE = "Profiles along polylines"
 VARIABLES = "DIST" "CONCENTRATION1" 
 ZONE T="TIME=0.000000000000e+00"
0.000000000000e+00 0.000000000000e+00 
1.000000000000e-01 0.000000000000e+00 
2.000000000000e-01 0.000000000000e+00 
3.000000000000e-01 0.000000000000e+00 
4.000000000000e-01 0.000000000000e+00 
5.000000000000e-01 0.000000000000e+00 
6.000000000000e-01 0.000000000000e+00 
7.000000000000e-01 0.000000000000e+00 
8.000000000000e-01 0.000000000000e+00 
9.000000000000e-01 0.000000000000e+00 
1.000000000000e+00 0.000000000000e+00 
1.100000000000e+00 0.000000000000e+00 
1.200000000000e+00 0.000000000000e+00 
1.300000000000e+00 0.000000000000e+00 
1.400000000000e+00 0.000000000000e+00 
1.500000000000e+00 0.000000000000e+00 
1.600000000000e+00 0.000000000000e+00 
1.700000000000e+00 0.000000000000e+00 
1.800000000000e+00 0.000000000000e+00 
1.900000000000e+00 0.000000000000e+00 
2.000000000000e+00 0.000000000000e+00 
2.100000000000e+00 0.000000000000e+00 
2.200000000000e+00 0.000000000000e+00 
2.300000000000e+00 0.000000000000e+00 
2.400000000000e+00 0.000000000000e+00 
2.500000000000e+00 0.000000000000e+00 
2.600000000000e+00 0.000000000000e+00 
2.700000000000e+00 0.000000000000e+00 
2.800000000000e+00 0.000000000000e+00 
2.900000000000e+00 0.000000000000e+00 
3.000000000000e+00 0.000000000000e+00 
3.100000000000e+00 0.000000000000e+00 
3.200000000000e+00 0.000000000000e+00 
3.300000000000e+00 0.000000000000e+00 
3.400000000000e+00 0.000000000000e+00 
3.500000000000e+00 0.000000000000e+00 
3.600000000000e+00 0.000000000000e+00 
3.700000000000e+00 0.000000000000e+00 
3.800000000000e+00 0.000000000000e+00 
3.900000000000e+00 0.000000000000e+00 
4.000000000000e+00 0.000000000000e+00 
 TITLE = "Profiles along polylines"
 VARIABLES = "DIST" "CONCENTRATION1" 
 ZONE T="TIME=7.200000000000e+03"
0.000000000000e+00 0.000000000000e+00 
1.000000000000e-01 -7.300559434573e-57 
2.000000000000e-01 3.228378192847e-56 
3.000000000000e-01 -1.364537784255e-55 
4.000000000000e-01 5.742286276616e-55 
5.000000000000e-01 -2.386759010279e-54 
6.000000000000e-01 9.711961621471e-54 
7.000000000000e-01 -3.809470246648e-53 
8.000000000000e-01 1.444725630467e-52 
9.000000000000e-01 -5.441869945675e-52 
1.000000000000e+00 2.099874328914e-51 
1.100000000000e+00 -8.547251388368e-51 
1.200000000000e+00 3.767142069828e-50 
1.300000000000e+00 -1.829784501571e-49 
1.400000000000e+00 9.900322159704e-49 
1.500000000000e+00 -6.093366282276e-48 
1.600000000000e+00 4.479296453393e-47 
1.700000000000e+00 -4.065924659976e-46 
1.800000000000e+00 3.229678155018e-45 
1.900000000000e+00 1.272251795294e-44 
2.000000000000e+00 7.502028347084e-44 
2.100000000000e+00 -1.738905689273e-43 
2.200000000000e+00 1.001013984199e-42 
2.300000000000e+00 -5.034727896111e-42 
2.400000000000e+00 2.842536047546e-41 
2.500000000000e+00 -1.056103517404e-40 
2.600000000000e+00 -2.952457731099e-39 
2.700000000000e+00 -1.994995247131e-39 
2.800000000000e+00 2.968976715999e-39 
2.900000000000e+00 -4.815998114745e-40 
3.000000000000e+00 7.066049066223e-41 
3.100000000000e+00 -1.544742419988e-41 
3.200000000000e+00 3.938644131797e-42 
3.300000000000e+00 -1.018028836208e-42 
3.400000000000e+00 2.620748530076e-43 
3.500000000000e+00 -6.716748315776e-44 
3.600000000000e+00 1.714326373229e-44 
3.700000000000e+00 -4.355135866345e-45 
3.800000000000e+00 1.097375280282e-45 
3.900000000000e+00 -2.608014749506e-46 
4.000000000000e+00 0.000000000000e+00 
 ZONE T="TIME=1.440000000000e+04"
0.000000000000e+00 0.000000000000e+00 
1.000000000000e-01 -7.869931980916e-56 
2.000000000000e-01 3.180678326823e-55 
3.000000000000e-01 -1.102486614397e-54 
4.000000000000e-01 3.113487307855e-54 
5.000000000000e-01 -6.242203109367e-54 
6.000000000000e-01 1.023474015213e-53 
7.000000000000e-01 -1.677959936491e-53 
8.000000000000e-01 -1.101814877194e-53 
9.000000000000e-01 3.374633144979e-52 
1.000000000000e+00 -2.665913789528e-51 
1.100000000000e+00 1.631618536539e-50 
1.200000000000e+00 -6.448855471088e-50 
1.300000000000e+00 -1.323883604138e-49 
1.400000000000e+00 6.839599382665e-48 
1.500000000000e+00 -1.126308165304e-46 
1.600000000000e+00 1.629554393217e-45 
1.700000000000e+00 -2.300891799816e-44 
1.800000000000e+00 2.143067062024e-43 
1.900000000000e+00 1.560205662735e-42 
2.000000000000e+00 4.330959392345e-42 
2.100000000000e+00 -3.475676784176e-42 
2.200000000000e+00 2.943847642805e-41 
2.300000000000e+00 -1.493326863368e-40 
2.400000000000e+00 9.238943255561e-40 
2.500000000000e+00 -3.963903444442e-39 
2.600000000000e+00 -7.527388063769e-38 
2.700000000000e+00 -3.961564818081e-38 
2.800000000000e+00 4.136506381304e-38 
2.900000000000e+00 -8.466282360240e-39 
3.000000000000e+00 1.950942667021e-39 
3.100000000000e+00 -4.869356910474e-40 
3.200000000000e+00 1.238690314190e-40 
3.300000000000e+00 -3.152125946619e-41 
3.400000000000e+00 7.997997176706e-42 
3.500000000000e+00 -2.023434197916e-42 
3.600000000000e+00 5.107288674581e-43 
3.700000000000e+00 -1.286952649869e-43 
3.800000000000e+00 3.231088359677e-44 
3.900000000000e+00 -7.681461706493e-45 
4.000000000000e+00 0.000000000000e+00 
 ZONE T="TIME=2.160000000000e+04"
0.000000000000e+00 0.000000000000e+00 
1.000000000000e-01 1.996716972021e-54 
2.000000000000e-01 -1.070012037865e-53 
3.000000000000e-01 5.989655959666e-53 
4.000000000000e-01 -3.438760479139e-52 
5.000000000000e-01 1.838674820412e-51 
6.000000000000e-01 -8.474162289165e-51 
7.000000000000e-01 3.491818436598e-50 
8.000000000000e-01 -1.371319890184e-49 
9.000000000000e-01 5.340443812929e-49 
1.000000000000e+00 -2.148629022739e-48 
1.100000000000e+00 9.174961710466e-48 
1.200000000000e+00 -4.100794342699e-47 
1.300000000000e+00 1.807671208440e-46 
1.400000000000e+00 -6.723726423825e-46 
1.500000000000e+00 3.511650477367e-46 
1.600000000000e+00 4.237918374927e-44 
1.700000000000e+00 -8.596108877163e-43 
1.800000000000e+00 8.689976745200e-42 
1.900000000000e+00 7.583455247764e-41 
2.000000000000e+00 1.562117852361e-40 
2.100000000000e+00 4.311726142762e-41 
2.200000000000e+00 2.740520470128e-40 
2.300000000000e+00 -1.146386433497e-39 
2.400000000000e+00 8.107217830216e-39 
2.500000000000e+00 -1.015584593453e-38 
2.600000000000e+00 -9.931658321265e-37 
2.700000000000e+00 -1.259713606516e-36 
2.800000000000e+00 5.374793659748e-37 
2.900000000000e+00 -1.131616476843e-37 
3.000000000000e+00 2.656230039085e-38 
3.100000000000e+00 -6.647369259215e-39 
3.200000000000e+00 1.689426455560e-39 
3.300000000000e+00 -4.291429500463e-40 
3.400000000000e+00 1.086536007134e-40 
3.500000000000e+00 -2.742350508258e-41 
3.600000000000e+00 6.904409067157e-42 
3.700000000000e+00 -1.735158856136e-42 
3.800000000000e+00 4.344182920882e-43 
3.900000000000e+00 -1.029964780299e-43 
4.000000000000e+00 0.000000000000e+00 
 ZONE T="TIME=2.880000000000e+04"
0.000000000000e+00 0.000000000000e+00 
1.000000000000e-01 1.056271484140e-52 
2.000000000000e-01 -5.288138627492e-52 
3.000000000000e-01 2.713846151758e-51 
4.000000000000e-01 -1.441319853278e-50 
5.000000000000e-01 7.336035292333e-50 
6.000000000000e-01 -3.320078420440e-49 
7.000000000000e-01 1.360639477697e-48 
8.000000000000e-01 -5.315815444464e-48 
9.000000000000e-01 2.058868299075e-47 
1.000000000000e+00 -8.240634890537e-47 
1.100000000000e+00 3.510234460792e-46 
1.200000000000e+00 -1.581768885753e-45 
1.300000000000e+00 7.211357994850e-45 
1.400000000000e+00 -2.994832611259e-44 
1.500000000000e+00 6.643954312320e-44 
1.600000000000e+00 9.505966800089e-43 
1.700000000000e+00 -2.411540361310e-41 
1.800000000000e+00 2.532374497300e-40 
1.900000000000e+00 2.320805978864e-39 
2.000000000000e+00 4.334396352159e-39 
2.100000000000e+00 3.106144815390e-39 
2.200000000000e+00 -1.355523415032e-39 
2.300000000000e+00 1.699820295025e-38 
2.400000000000e+00 -6.657444253170e-38 
2.500000000000e+00 7.759661474078e-37 
2.600000000000e+00 -1.363150561708e-36 
2.700000000000e+00 -1.654840535872e-35 
2.800000000000e+00 -7.341393524953e-37 
2.900000000000e+00 7.975477988815e-37 
3.000000000000e+00 -2.573101772133e-37 
3.100000000000e+00 6.724659060868e-38 
3.200000000000e+00 -1.709256360553e-38 
3.300000000000e+00 4.342391003919e-39 
3.400000000000e+00 -1.102492987979e-39 
3.500000000000e+00 2.795445181825e-40 
3.600000000000e+00 -7.081947089160e-41 
3.700000000000e+00 1.794558121511e-41 
3.800000000000e+00 -4.542749267008e-42 
3.900000000000e+00 1.090846009041e-42 
4.000000000000e+00 0.000000000000e+00 
 ZONE T="TIME=3.600000000000e+04"
0.000000000000e+00 0.000000000000e+00 
1.000000000000e-01 2.513035679936e-51 
2.000000000000e-01 -1.253709492466e-50 
3.000000000000e-01 6.396938753793e-50 
4.000000000000e-01 -3.379193059467e-49 
5.000000000000e-01 1.715458628288e-48 
6.000000000000e-01 -7.766903959737e-48 
7.000000000000e-01 3.185652085051e-47 
8.000000000000e-01 -1.244172122133e-46 
9.000000000000e-01 4.815573960804e-46 
1.000000000000e+00 -1.927782179952e-45 
1.100000000000e+00 8.231310997291e-45 
1.200000000000e+00 -3.733136265479e-44 
1.300000000000e+00 1.724499361793e-43 
1.400000000000e+00 -7.370067306839e-43 
1.500000000000e+00 1.885713668665e-42 
1.600000000000e+00 1.921681024377e-41 
1.700000000000e+00 -5.356719339613e-40 
1.800000000000e+00 5.714398054355e-39 
1.900000000000e+00 5.217337592988e-38 
2.000000000000e+00 9.725864104263e-38 
2.100000000000e+00 7.049528206750e-38 
2.200000000000e+00 -2.828919707130e-38 
2.300000000000e+00 3.586847241790e-37 
2.400000000000e+00 -1.136670807373e-36 
2.500000000000e+00 -4.993753830903e-37 
2.600000000000e+00 2.148654523913e-34 
2.700000000000e+00 2.226045557535e-34 
2.800000000000e+00 -2.003547673878e-34 
2.900000000000e+00 5.406498590657e-35 
3.000000000000e+00 -1.384602845215e-35 
3.100000000000e+00 3.508058872990e-36 
3.200000000000e+00 -8.911916081879e-37 
3.300000000000e+00 2.263476712882e-37 
3.400000000000e+00 -5.735451129754e-38 
3.500000000000e+00 1.449662971475e-38 
3.600000000000e+00 -3.657033524165e-39 
3.700000000000e+00 9.215154058042e-40 
3.800000000000e+00 -2.315501927843e-40 
3.900000000000e+00 5.513386252397e-41 
4.000000000000e+00 0.000000000000e+00 
 ZONE T="TIME=4.320000000000e+04"
0.000000000000e+00 0.000000000000e+00 
1.000000000000e-01 4.208988150076e-50 
2.000000000000e-01 -2.118892923039e-49 
3.000000000000e-01 1.093633816798e-48 
4.000000000000e-01 -5.845564940585e-48 
5.000000000000e-01 2.996285443296e-47 
6.000000000000e-01 -1.364816921202e-46 
7.000000000000e-01 5.614651361897e-46 
8.000000000000e-01 -2.195117848492e-45 
9.000000000000e-01 8.501177580118e-45 
1.000000000000e+00 -3.409342104790e-44 
1.100000000000e+00 1.462022180226e-43 
1.200000000000e+00 -6.679194068216e-43 
1.300000000000e+00 3.117316428352e-42 
1.400000000000e+00 -1.352494662777e-41 
1.500000000000e+00 3.617207883070e-41 
1.600000000000e+00 3.346936299384e-40 
1.700000000000e+00 -9.690529783657e-39 
1.800000000000e+00 1.042142059752e-37 
1.900000000000e+00 9.333330083694e-37 
2.000000000000e+00 1.788149582527e-36 
2.100000000000e+00 1.065413288006e-36 
2.200000000000e+00 7.230596586423e-37 
2.300000000000e+00 -5.104344336913e-37 
2.400000000000e+00 2.721843175292e-35 
2.500000000000e+00 -4.934391360939e-34 
2.600000000000e+00 4.508877185954e-33 
2.700000000000e+00 1.191807896694e-32 
2.800000000000e+00 -4.626230505786e-33 
2.900000000000e+00 1.072307788287e-33 
3.000000000000e+00 -2.602163584885e-34 
3.100000000000e+00 6.544358401920e-35 
3.200000000000e+00 -1.663319148923e-35 
3.300000000000e+00 4.225328529322e-36 
3.400000000000e+00 -1.070178305304e-36 
3.500000000000e+00 2.702592770996e-37 
3.600000000000e+00 -6.809448372029e-38 
3.700000000000e+00 1.712992966626e-38 
3.800000000000e+00 -4.294291664424e-39 
3.900000000000e+00 1.019648620273e-39 
4.000000000000e+00 0.000000000000e+00 
 ZONE T="TIME=5.040000000000e+04"
0.000000000000e+00 0.000000000000e+00 
1.000000000000e-01 5.575253119034e-49 
2.000000000000e-01 -2.852174438315e-48 
3.000000000000e-01 1.502668096736e-47 
4.000000000000e-01 -8.197052496224e-47 
5.000000000000e-01 4.268180076356e-46 
6.000000000000e-01 -1.961983218049e-45 
7.000000000000e-01 8.106150823097e-45 
8.000000000000e-01 -3.174506558827e-44 
9.000000000000e-01 1.230737429789e-43 
1.000000000000e+00 -4.948683492175e-43 
1.100000000000e+00 2.134006013354e-42 
1.200000000000e+00 -9.833528110851e-42 
1.300000000000e+00 4.640248163207e-41 
1.400000000000e+00 -2.041550164037e-40 
1.500000000000e+00 5.632914743265e-40 
1.600000000000e+00 4.920503957248e-39 
1.700000000000e+00 -1.465545256164e-37 
1.800000000000e+00 1.586793872467e-36 
1.900000000000e+00 1.392195712827e-35 
2.000000000000e+00 2.745125336500e-35 
2.100000000000e+00 1.280392322209e-35 
2.200000000000e+00 3.026834864439e-35 
2.300000000000e+00 -1.170071147151e-34 
2.400000000000e+00 1.152241168579e-33 
2.500000000000e+00 -1.339884037989e-32 
2.600000000000e+00 4.955331655145e-32 
2.700000000000e+00 2.389283377312e-31 
2.800000000000e+00 -6.538887307807e-32 
2.900000000000e+00 1.390779407414e-32 
3.000000000000e+00 -3.275656296720e-33 
3.100000000000e+00 8.214276018238e-34 
3.200000000000e+00 -2.089784585064e-34 
3.300000000000e+00 5.310214891432e-35 
3.400000000000e+00 -1.344525994862e-35 
3.500000000000e+00 3.393120452810e-36 
3.600000000000e+00 -8.540982426435e-37 
3.700000000000e+00 2.145693875588e-37 
3.800000000000e+00 -5.368981499405e-38 
3.900000000000e+00 1.271844496904e-38 
4.000000000000e+00 0.000000000000e+00 
 ZONE T="TIME=5.760000000000e+04"
0.000000000000e+00 0.000000000000e+00 
1.000000000000e-01 6.172810465435e-48 
2.000000000000e-01 -3.227495362409e-47 
3.000000000000e-01 1.747110035360e-46 
4.000000000000e-01 -9.779611503221e-46 
5.000000000000e-01 5.191256649608e-45 
6.000000000000e-01 -2.412647977993e-44 
7.000000000000e-01 1.001945162166e-43 
8.000000000000e-01 -3.931492059076e-43 
9.000000000000e-01 1.526127371865e-42 
1.000000000000e+00 -6.154982709416e-42 
1.100000000000e+00 2.671191593538e-41 
1.200000000000e+00 -1.242945372500e-40 
1.300000000000e+00 5.938244143249e-40 
1.400000000000e+00 -2.654691537302e-39 
1.500000000000e+00 7.605170934211e-39 
1.600000000000e+00 6.134326964663e-38 
1.700000000000e+00 -1.896801698543e-36 
1.800000000000e+00 2.069749539793e-35 
1.900000000000e+00 1.784442757929e-34 
2.000000000000e+00 3.595868453696e-34 
2.100000000000e+00 1.347845453825e-34 
2.200000000000e+00 5.801971331211e-34 
2.300000000000e+00 -2.577897932265e-33 
2.400000000000e+00 2.221824667640e-32 
2.500000000000e+00 -2.210503542444e-31 
2.600000000000e+00 2.766443229820e-31 
2.700000000000e+00 3.243140029147e-30 
2.800000000000e+00 -6.789927253339e-31 
2.900000000000e+00 1.353825710198e-31 
3.000000000000e+00 -3.130401477400e-32 
3.100000000000e+00 7.850084171852e-33 
3.200000000000e+00 -2.000220726095e-33 
3.300000000000e+00 5.084714140125e-34 
3.400000000000e+00 -1.287047961948e-34 
3.500000000000e+00 3.245844188401e-35 
3.600000000000e+00 -8.162195251384e-36 
3.700000000000e+00 2.047745368885e-36 
3.800000000000e+00 -5.114179317460e-37 
3.900000000000e+00 1.208520035844e-37 
4.000000000000e+00 0.000000000000e+00 
 ZONE T="TIME=6.480000000000e+04"
0.000000000000e+00 0.000000000000e+00 
1.000000000000e-01 5.893875104604e-47 
2.000000000000e-01 -3.167742818913e-46 
3.000000000000e-01 1.771799814559e-45 
4.000000000000e-01 -1.021679980560e-44 
5.000000000000e-01 5.540731277739e-44 
6.000000000000e-01 -2.606357398005e-43 
7.000000000000e-01 1.088486092132e-42 
8.000000000000e-01 -4.279867308871e-42 
9.000000000000e-01 1.663471564164e-41 
1.000000000000e+00 -6.730373769691e-41 
1.100000000000e+00 2.940928725209e-40 
1.200000000000e+00 -1.382904220176e-39 
1.300000000000e+00 6.696985264423e-39 
1.400000000000e+00 -3.048890901643e-38 
1.500000000000e+00 9.146207448019e-38 
1.600000000000e+00 6.573248096569e-37 
1.700000000000e+00 -2.142758215849e-35 
1.800000000000e+00 2.360197319621e-34 
1.900000000000e+00 2.006982320578e-33 
2.000000000000e+00 4.100228246209e-33 
2.100000000000e+00 1.324258246959e-33 
2.200000000000e+00 7.896585692562e-33 
2.300000000000e+00 -3.664922348473e-32 
2.400000000000e+00 3.043600334354e-31 
2.500000000000e+00 -2.739756458161e-30 
2.600000000000e+00 -9.725700990845e-31 
2.700000000000e+00 3.412263284511e-29 
2.800000000000e+00 -5.496058745408e-30 
2.900000000000e+00 1.031508864532e-30 
3.000000000000e+00 -2.358848345471e-31 
3.100000000000e+00 5.933235476805e-32 
3.200000000000e+00 -1.515583381466e-32 
3.300000000000e+00 3.855354113010e-33 
3.400000000000e+00 -9.756174718666e-34 
3.500000000000e+00 2.458599260187e-34 
3.600000000000e+00 -6.175641597054e-35 
3.700000000000e+00 1.546938307473e-35 
3.800000000000e+00 -3.854880481826e-36 
3.900000000000e+00 9.082358753646e-37 
4.000000000000e+00 0.000000000000e+00 
 ZONE T="TIME=7.200000000000e+04"
0.000000000000e+00 0.000000000000e+00 
1.000000000000e-01 4.940780018928e-46 
2.000000000000e-01 -2.748178057072e-45 
3.000000000000e-01 1.597305296078e-44 
4.000000000000e-01 -9.519068249445e-44 
5.000000000000e-01 5.281710898077e-43 
6.000000000000e-01 -2.516348177634e-42 
7.000000000000e-01 1.057087336386e-41 
8.000000000000e-01 -4.164964347398e-41 
9.000000000000e-01 1.620782655628e-40 
1.000000000000e+00 -6.578939716338e-40 
1.100000000000e+00 2.895090875839e-39 
1.200000000000e+00 -1.376314265872e-38 
1.300000000000e+00 6.761081245992e-38 
1.400000000000e+00 -3.139530684242e-37 
1.500000000000e+00 9.913314661848e-37 
1.600000000000e+00 6.139364433825e-36 
1.700000000000e+00 -2.147138295150e-34 
1.800000000000e+00 2.391273027655e-33 
1.900000000000e+00 2.011717921354e-32 
2.000000000000e+00 4.139156401489e-32 
2.100000000000e+00 1.253835527743e-32 
2.200000000000e+00 8.601788343761e-32 
2.300000000000e+00 -4.050106597047e-31 
2.400000000000e+00 3.338589452591e-30 
2.500000000000e+00 -2.766128895122e-29 
2.600000000000e+00 -4.423820833998e-29 
2.700000000000e+00 2.954198485750e-28 
2.800000000000e+00 -3.494250324178e-29 
2.900000000000e+00 6.070528922938e-30 
3.000000000000e+00 -1.379910225716e-30 
3.100000000000e+00 3.498741659190e-31 
3.200000000000e+00 -8.979074808446e-32 
3.300000000000e+00 2.287351926805e-32 
3.400000000000e+00 -5.787646798366e-33 
3.500000000000e+00 1.457249741133e-33 
3.600000000000e+00 -3.655180680922e-34 
3.700000000000e+00 9.136666638825e-35 
3.800000000000e+00 -2.269722224879e-35 
3.900000000000e+00 5.324095169161e-36 
4.000000000000e+00 0.000000000000e+00 
 ZONE T="TIME=7.920000000000e+04"
0.000000000000e+00 0.000000000000e+00 
1.000000000000e-01 3.666724328439e-45 
2.000000000000e-01 -2.130329223451e-44 
3.000000000000e-01 1.295523395904e-43 
4.000000000000e-01 -8.006223176651e-43 
5.000000000000e-01 4.550808872749e-42 
6.000000000000e-01 -2.196962295989e-41 
7.000000000000e-01 9.285000670286e-41 
8.000000000000e-01 -3.665724483677e-40 
9.000000000000e-01 1.428140812334e-39 
1.000000000000e+00 -5.815780056525e-39 
1.100000000000e+00 2.577635954999e-38 
1.200000000000e+00 -1.239161127182e-37 
1.300000000000e+00 6.177624064709e-37 
1.400000000000e+00 -2.928271595144e-36 
1.500000000000e+00 9.746202876654e-36 
1.600000000000e+00 5.056006628172e-35 
1.700000000000e+00 -1.933684860769e-33 
1.800000000000e+00 2.180722230255e-32 
1.900000000000e+00 1.818902306377e-31 
2.000000000000e+00 3.750843790038e-31 
2.100000000000e+00 1.146363390832e-31 
2.200000000000e+00 7.932076384587e-31 
2.300000000000e+00 -3.735793005606e-30 
2.400000000000e+00 3.100872639683e-29 
2.500000000000e+00 -2.373742758918e-28 
2.600000000000e+00 -6.313277787705e-28 
2.700000000000e+00 2.174692417473e-27 
2.800000000000e+00 -1.640663835615e-28 
2.900000000000e+00 2.420225933224e-29 
3.000000000000e+00 -5.481205418755e-30 
3.100000000000e+00 1.422760711251e-30 
3.200000000000e+00 -3.697666371876e-31 
3.300000000000e+00 9.459997061099e-32 
3.400000000000e+00 -2.395079955196e-32 
3.500000000000e+00 6.023352538743e-33 
3.600000000000e+00 -1.507077193717e-33 
3.700000000000e+00 3.751888609088e-34 
3.800000000000e+00 -9.259832779387e-35 
3.900000000000e+00 2.150662291092e-35 
4.000000000000e+00 0.000000000000e+00 
 ZONE T="TIME=8.640000000000e+04"
0.000000000000e+00 0.000000000000e+00 
1.000000000000e-01 2.407352780238e-44 
2.000000000000e-01 -1.482310048199e-43 
3.000000000000e-01 9.522758443251e-43 
4.000000000000e-01 -6.129247629392e-42 
5.000000000000e-01 3.574549552579e-41 
6.000000000000e-01 -1.749525731112e-40 
7.000000000000e-01 7.439845180955e-40 
8.000000000000e-01 -2.943118146985e-39 
9.000000000000e-01 1.147868416091e-38 
1.000000000000e+00 -4.689607089002e-38 
1.100000000000e+00 2.093619183874e-37 
1.200000000000e+00 -1.017950037639e-36 
1.300000000000e+00 5.151236276708e-36 
1.400000000000e+00 -2.493196599674e-35 
1.500000000000e+00 8.736084312327e-35 
1.600000000000e+00 3.701672990007e-34 
1.700000000000e+00 -1.582013802051e-32 
1.800000000000e+00 1.809038913346e-31 
1.900000000000e+00 1.497918199094e-30 
2.000000000000e+00 3.085809204759e-30 
2.100000000000e+00 9.980111278690e-31 
2.200000000000e+00 6.398877473710e-30 
2.300000000000e+00 -2.986903043018e-29 
2.400000000000e+00 2.519453383640e-28 
2.500000000000e+00 -1.776920359544e-27 
2.600000000000e+00 -6.443485007507e-27 
2.700000000000e+00 1.387637122851e-26 
2.800000000000e+00 -3.866175657329e-28 
2.900000000000e+00 1.034673877948e-29 
3.000000000000e+00 -2.166435126389e-30 
3.100000000000e+00 9.980289434907e-31 
3.200000000000e+00 -3.199773846168e-31 
3.300000000000e+00 8.754805380151e-32 
3.400000000000e+00 -2.252910772517e-32 
3.500000000000e+00 5.628850987000e-33 
3.600000000000e+00 -1.375824915843e-33 
3.700000000000e+00 3.272629587799e-34 
3.800000000000e+00 -7.421067197150e-35 
3.900000000000e+00 1.477718134938e-35 
4.000000000000e+00 0.000000000000e+00 
 ZONE T="TIME=9.360000000000e+04"
0.000000000000e+00 0.000000000000e+00 
1.000000000000e-01 1.380615740120e-43 
2.000000000000e-01 -9.246005286644e-43 
3.000000000000e-01 6.368947092997e-42 
4.000000000000e-01 -4.296009797409e-41 
5.000000000000e-01 2.576201485723e-40 
6.000000000000e-01 -1.279249782718e-39 
7.000000000000e-01 5.474861539373e-39 
8.000000000000e-01 -2.170128488715e-38 
9.000000000000e-01 8.472882129060e-38 
1.000000000000e+00 -3.472974083379e-37 
1.100000000000e+00 1.561963808853e-36 
1.200000000000e+00 -7.682457599555e-36 
1.300000000000e+00 3.946715488442e-35 
1.400000000000e+00 -1.950319123417e-34 
1.500000000000e+00 7.175522082630e-34 
1.600000000000e+00 2.419861839807e-33 
1.700000000000e+00 -1.186250500694e-31 
1.800000000000e+00 1.377043641634e-30 
1.900000000000e+00 1.132652130825e-29 
2.000000000000e+00 2.326299225484e-29 
2.100000000000e+00 8.152163738032e-30 
2.200000000000e+00 4.615532122692e-29 
2.300000000000e+00 -2.119483903516e-28 
2.400000000000e+00 1.829785052335e-27 
2.500000000000e+00 -1.180359562035e-26 
2.600000000000e+00 -5.380817777771e-26 
2.700000000000e+00 7.753838318042e-26 
2.800000000000e+00 2.354278955278e-27 
2.900000000000e+00 -9.330355957423e-28 
3.000000000000e+00 2.145293812571e-28 
3.100000000000e+00 -5.028466767130e-29 
3.200000000000e+00 1.230064403460e-29 
3.300000000000e+00 -3.071348969012e-30 
3.400000000000e+00 7.716829696212e-31 
3.500000000000e+00 -1.941480767590e-31 
3.600000000000e+00 4.888002380971e-32 
3.700000000000e+00 -1.233154584842e-32 
3.800000000000e+00 3.118033345933e-33 
3.900000000000e+00 -7.531625240875e-34 
4.000000000000e+00 0.000000000000e+00 
 ZONE T="TIME=1.008000000000e+05"
0.000000000000e+00 0.000000000000e+00 
1.000000000000e-01 6.665515389172e-43 
2.000000000000e-01 -5.123946558193e-42 
3.000000000000e-01 3.880411062583e-41 
4.000000000000e-01 -2.768397278940e-40 
5.000000000000e-01 1.712381474199e-39 
6.000000000000e-01 -8.635626199859e-39 
7.000000000000e-01 3.720643386051e-38 
8.000000000000e-01 -1.477815266648e-37 
9.000000000000e-01 5.776036269821e-37 
1.000000000000e+00 -2.375575137362e-36 
1.100000000000e+00 1.076568847691e-35 
1.200000000000e+00 -5.357694734318e-35 
1.300000000000e+00 2.794616496762e-34 
1.400000000000e+00 -1.409676618643e-33 
1.500000000000e+00 5.428453747386e-33 
1.600000000000e+00 1.411653644468e-32 
1.700000000000e+00 -8.212753805084e-31 
1.800000000000e+00 9.688364012314e-30 
1.900000000000e+00 7.917484925797e-29 
2.000000000000e+00 1.619436197557e-28 
2.100000000000e+00 6.193275942743e-29 
2.200000000000e+00 3.024000272121e-28 
2.300000000000e+00 -1.356640378268e-27 
2.400000000000e+00 1.206393469075e-26 
2.500000000000e+00 -7.039264669197e-26 
2.600000000000e+00 -3.877433106465e-25 
2.700000000000e+00 3.801492540095e-25 
2.800000000000e+00 4.148698867995e-26 
2.900000000000e+00 -1.122613502368e-26 
3.000000000000e+00 2.584497578393e-27 
3.100000000000e+00 -6.248561312279e-28 
3.200000000000e+00 1.556634470459e-28 
3.300000000000e+00 -3.912801467548e-29 
3.400000000000e+00 9.842279272721e-30 
3.500000000000e+00 -2.472297708341e-30 
3.600000000000e+00 6.202325684865e-31 
3.700000000000e+00 -1.555564449449e-31 
3.800000000000e+00 3.896793118513e-32 
3.900000000000e+00 -9.284959628125e-33 
4.000000000000e+00 0.000000000000e+00 
 ZONE T="TIME=1.080000000000e+05"
0.000000000000e+00 0.000000000000e+00 
1.000000000000e-01 2.412989036305e-42 
2.000000000000e-01 -2.464611602528e-41 
3.000000000000e-01 2.149704381299e-40 
4.000000000000e-01 -1.645068910131e-39 
5.000000000000e-01 1.054213939111e-38 
6.000000000000e-01 -5.406882722574e-38 
7.000000000000e-01 2.346190320661e-37 
8.000000000000e-01 -9.338924038156e-37 
9.000000000000e-01 3.654163189654e-36 
1.000000000000e+00 -1.508219665244e-35 
1.100000000000e+00 6.889365896257e-35 
1.200000000000e+00 -3.470325541270e-34 
1.300000000000e+00 1.838237944771e-33 
1.400000000000e+00 -9.462677173139e-33 
1.500000000000e+00 3.801882617307e-32 
1.600000000000e+00 7.286603721646e-32 
1.700000000000e+00 -5.282637348653e-30 
1.800000000000e+00 6.338986197378e-29 
1.900000000000e+00 5.146284511798e-28 
2.000000000000e+00 1.047775789976e-27 
2.100000000000e+00 4.363659546812e-28 
2.200000000000e+00 1.821419910628e-27 
2.300000000000e+00 -7.926774698367e-27 
2.400000000000e+00 7.305909675559e-26 
2.500000000000e+00 -3.797899679250e-25 
2.600000000000e+00 -2.480792950397e-24 
2.700000000000e+00 1.619914623844e-24 
2.800000000000e+00 3.714005681802e-25 
2.900000000000e+00 -9.164809425658e-26 
3.000000000000e+00 2.118453792767e-26 
3.100000000000e+00 -5.176959493353e-27 
3.200000000000e+00 1.296732359280e-27 
3.300000000000e+00 -3.264548430353e-28 
3.400000000000e+00 8.209489024534e-29 
3.500000000000e+00 -2.059757119253e-29 
3.600000000000e+00 5.158018461489e-30 
3.700000000000e+00 -1.290333247868e-30 
3.800000000000e+00 3.220526068840e-31 
3.900000000000e+00 -7.635042103807e-32 
4.000000000000e+00 0.000000000000e+00 
 ZONE T="TIME=1.152000000000e+05"
0.000000000000e+00 0.000000000000e+00 
1.000000000000e-01 2.973104240964e-42 
2.000000000000e-01 -9.669940950124e-41 
3.000000000000e-01 1.075901276887e-39 
4.000000000000e-01 -9.030441677670e-39 
5.000000000000e-01 6.032570606152e-38 
6.000000000000e-01 -3.152508906505e-37 
7.000000000000e-01 1.378520627602e-36 
8.000000000000e-01 -5.499730331718e-36 
9.000000000000e-01 2.154492786171e-35 
1.000000000000e+00 -8.926011694485e-35 
1.100000000000e+00 4.111488768907e-34 
1.200000000000e+00 -2.097207335491e-33 
1.300000000000e+00 1.128423837636e-32 
1.400000000000e+00 -5.926569398254e-32 
1.500000000000e+00 2.477124295350e-31 
1.600000000000e+00 3.246845266779e-31 
1.700000000000e+00 -3.173715804590e-29 
1.800000000000e+00 3.877353091033e-28 
1.900000000000e+00 3.126195935802e-27 
2.000000000000e+00 6.335145616322e-27 
2.100000000000e+00 2.854426137314e-27 
2.200000000000e+00 1.018279254162e-26 
2.300000000000e+00 -4.266572342440e-26 
2.400000000000e+00 4.101888260856e-25 
2.500000000000e+00 -1.861778785124e-24 
2.600000000000e+00 -1.434793214474e-23 
2.700000000000e+00 5.806920778722e-24 
2.800000000000e+00 2.594784288648e-24 
2.900000000000e+00 -6.162822187070e-25 
3.000000000000e+00 1.431641181424e-25 
3.100000000000e+00 -3.519526259668e-26 
3.200000000000e+00 8.838143787961e-27 
3.300000000000e+00 -2.225857852568e-27 
3.400000000000e+00 5.594067278685e-28 
3.500000000000e+00 -1.402007330989e-28 
3.600000000000e+00 3.505783262176e-29 
3.700000000000e+00 -8.753807859419e-30 
3.800000000000e+00 2.179545893760e-30 
3.900000000000e+00 -5.151192459512e-31 
4.000000000000e+00 0.000000000000e+00 
 ZONE T="TIME=1.224000000000e+05"
0.000000000000e+00 0.000000000000e+00 
1.000000000000e-01 -5.034598215329e-41 
2.000000000000e-01 -2.442623692921e-40 
3.000000000000e-01 4.791839838139e-39 
4.000000000000e-01 -4.581212131339e-38 
5.000000000000e-01 3.217960196426e-37 
6.000000000000e-01 -1.717650454836e-36 
7.000000000000e-01 7.574512678190e-36 
8.000000000000e-01 -3.029444026234e-35 
9.000000000000e-01 1.188294268384e-34 
1.000000000000e+00 -4.943115711873e-34 
1.100000000000e+00 2.297241575999e-33 
1.200000000000e+00 -1.187272467662e-32 
1.300000000000e+00 6.491326025685e-32 
1.400000000000e+00 -3.477925081113e-31 
1.500000000000e+00 1.508391778443e-30 
1.600000000000e+00 1.164103612964e-30 
1.700000000000e+00 -1.789070528290e-28 
1.800000000000e+00 2.227254580951e-27 
1.900000000000e+00 1.782720360947e-26 
2.000000000000e+00 3.596388705044e-26 
2.100000000000e+00 1.738810322444e-26 
2.200000000000e+00 5.325553376750e-26 
2.300000000000e+00 -2.130690040458e-25 
2.400000000000e+00 2.151256172654e-24 
2.500000000000e+00 -8.298198963295e-24 
2.600000000000e+00 -7.595710179758e-23 
2.700000000000e+00 1.574541523085e-23 
2.800000000000e+00 1.557323352849e-23 
2.900000000000e+00 -3.632114543024e-24 
3.000000000000e+00 8.483420123165e-25 
3.100000000000e+00 -2.094124527038e-25 
3.200000000000e+00 5.265999611684e-26 
3.300000000000e+00 -1.326101374247e-26 
3.400000000000e+00 3.330264260149e-27 
3.500000000000e+00 -8.337303563034e-28 
3.600000000000e+00 2.081988711368e-28 
3.700000000000e+00 -5.190295731729e-29 
3.800000000000e+00 1.289745492129e-29 
3.900000000000e+00 -3.041050877715e-30 
4.000000000000e+00 0.000000000000e+00 
 ZONE T="TIME=1.296000000000e+05"
0.000000000000e+00 0.000000000000e+00 
1.000000000000e-01 -6.372724015084e-40 
2.000000000000e-01 3.710152518464e-40 