 TITLE = "Profiles along polylines"
 VARIABLES = "DIST" "CONCENTRATION1" 
 ZONE T="TIME=0.000000000000e+00"
0.000000000000e+00 0.000000000000e+00 
1.000000000000e-01 0.000000000000e+00 
2.000000000000e-01 0.000000000000e+00 
3.000000000000e-01 0.000000000000e+00 
4.000000000000e-01 0.000000000000e+00 
5.000000000000e-01 0.000000000000e+00 
6.000000000000e-01 0.000000000000e+00 
7.000000000000e-01 0.000000000000e+00 
8.000000000000e-01 0.000000000000e+00 
9.000000000000e-01 0.000000000000e+00 
1.000000000000e+00 0.000000000000e+00 
1.100000000000e+00 0.000000000000e+00 
1.200000000000e+00 0.000000000000e+00 
1.300000000000e+00 0.000000000000e+00 
1.400000000000e+00 0.000000000000e+00 
1.500000000000e+00 0.000000000000e+00 
1.600000000000e+00 0.000000000000e+00 
1.700000000000e+00 0.000000000000e+00 
1.800000000000e+00 0.000000000000e+00 
1.900000000000e+00 0.000000000000e+00 
2.000000000000e+00 0.000000000000e+00 
2.100000000000e+00 0.000000000000e+00 
2.200000000000e+00 0.000000000000e+00 
2.300000000000e+00 0.000000000000e+00 
2.400000000000e+00 0.000000000000e+00 
2.500000000000e+00 0.000000000000e+00 
2.600000000000e+00 0.000000000000e+00 
2.700000000000e+00 0.000000000000e+00 
2.800000000000e+00 0.000000000000e+00 
2.900000000000e+00 0.000000000000e+00 
3.000000000000e+00 0.000000000000e+00 
3.100000000000e+00 0.000000000000e+00 
3.200000000000e+00 0.000000000000e+00 
3.300000000000e+00 0.000000000000e+00 
3.400000000000e+00 0.000000000000e+00 
3.500000000000e+00 0.000000000000e+00 
3.600000000000e+00 0.000000000000e+00 
3.700000000000e+00 0.000000000000e+00 
3.800000000000e+00 0.000000000000e+00 
3.900000000000e+00 0.000000000000e+00 
4.000000000000e+00 0.000000000000e+00 
 TITLE = "Profiles along polylines"
 VARIABLES = "DIST" "CONCENTRATION1" 
 ZONE T="TIME=7.200000000000e+03"
0.000000000000e+00 0.000000000000e+00 
1.000000000000e-01 -3.303137838538e-143 
2.000000000000e-01 4.363079609142e-143 
3.000000000000e-01 -1.239909895147e-142 
4.000000000000e-01 1.224518816927e-141 
5.000000000000e-01 -1.089527895226e-140 
6.000000000000e-01 7.657750673615e-140 
7.000000000000e-01 -4.216087322901e-139 
8.000000000000e-01 1.826099706268e-138 
9.000000000000e-01 -6.790848655701e-138 
1.000000000000e+00 2.457270283614e-137 
1.100000000000e+00 -9.418058108928e-137 
1.200000000000e+00 3.976273923431e-136 
1.300000000000e+00 -1.903029699904e-135 
1.400000000000e+00 1.059320897196e-134 
1.500000000000e+00 -6.577237058396e-134 
1.600000000000e+00 3.862546431362e-133 
1.700000000000e+00 -1.951969597314e-132 
1.800000000000e+00 9.684903484341e-132 
1.900000000000e+00 -5.840661898097e-131 
2.000000000000e+00 4.521678431857e-130 
2.100000000000e+00 -2.627035054728e-129 
2.200000000000e+00 -1.094344927175e-128 
2.300000000000e+00 -4.799943742805e-129 
2.400000000000e+00 7.848744642202e-130 
2.500000000000e+00 -2.198251226256e-130 
2.600000000000e+00 5.700542261638e-131 
2.700000000000e+00 -1.416044553099e-131 
2.800000000000e+00 3.406886074854e-132 
2.900000000000e+00 -7.935367938184e-133 
3.000000000000e+00 1.783310526686e-133 
3.100000000000e+00 -3.877951478537e-134 
3.200000000000e+00 8.271828858860e-135 
3.300000000000e+00 -1.765828907757e-135 
3.400000000000e+00 3.849214722794e-136 
3.500000000000e+00 -8.695033986656e-137 
3.600000000000e+00 2.031886650541e-137 
3.700000000000e+00 -4.843518373952e-138 
3.800000000000e+00 1.171054564357e-138 
3.900000000000e+00 -2.682381469876e-139 
4.000000000000e+00 0.000000000000e+00 
 ZONE T="TIME=1.440000000000e+04"
0.000000000000e+00 0.000000000000e+00 
1.000000000000e-01 2.971001444682e-140 
2.000000000000e-01 -1.496743346348e-139 
3.000000000000e-01 6.239962938608e-139 
4.000000000000e-01 -2.426009555497e-138 
5.000000000000e-01 8.875862278306e-138 
6.000000000000e-01 -3.047914484922e-137 
7.000000000000e-01 1.032594968334e-136 
8.000000000000e-01 -3.837461861591e-136 
9.000000000000e-01 1.559150623541e-135 
1.000000000000e+00 -6.343759870391e-135 
1.100000000000e+00 2.477076371808e-134 
1.200000000000e+00 -9.104996021368e-134 
1.300000000000e+00 2.958874462904e-133 
1.400000000000e+00 -6.113845430318e-133 
1.500000000000e+00 -1.952900706081e-132 
1.600000000000e+00 3.126248591961e-131 
1.700000000000e+00 -2.053053948675e-130 
1.800000000000e+00 1.202465991055e-129 
1.900000000000e+00 -8.814645724455e-129 
2.000000000000e+00 8.322946523750e-128 
2.100000000000e+00 -5.945504679598e-127 
2.200000000000e+00 -2.002331566227e-126 
2.300000000000e+00 -6.715068352894e-127 
2.400000000000e+00 1.089935945112e-127 
2.500000000000e+00 -2.953894264676e-128 
2.600000000000e+00 7.454068401579e-129 
2.700000000000e+00 -1.819732392835e-129 
2.800000000000e+00 4.313305175050e-130 
2.900000000000e+00 -9.860672966305e-131 
3.000000000000e+00 2.155235194677e-131 
3.100000000000e+00 -4.512423735656e-132 
3.200000000000e+00 9.221640037052e-133 
3.300000000000e+00 -1.888204420310e-133 
3.400000000000e+00 3.967528898233e-134 
3.500000000000e+00 -8.734294029284e-135 
3.600000000000e+00 2.025815928931e-135 
3.700000000000e+00 -4.721711300090e-136 
3.800000000000e+00 1.005192947695e-136 
3.900000000000e+00 -1.788595775056e-137 
4.000000000000e+00 0.000000000000e+00 
 ZONE T="TIME=2.160000000000e+04"
0.000000000000e+00 0.000000000000e+00 
1.000000000000e-01 2.549090246241e-138 
2.000000000000e-01 -1.212008246945e-137 
3.000000000000e-01 5.022911963820e-137 
4.000000000000e-01 -1.997573160981e-136 
5.000000000000e-01 7.685894819752e-136 
6.000000000000e-01 -2.867504638418e-135 
7.000000000000e-01 1.065498467802e-134 
8.000000000000e-01 -4.109982649500e-134 
9.000000000000e-01 1.633955946501e-133 
1.000000000000e+00 -6.474034493395e-133 
1.100000000000e+00 2.519033471297e-132 
1.200000000000e+00 -9.563656274559e-132 
1.300000000000e+00 3.465407288506e-131 
1.400000000000e+00 -1.104376997954e-130 
1.500000000000e+00 2.272946498799e-130 
1.600000000000e+00 2.445854412625e-130 
1.700000000000e+00 -5.014834463742e-129 
1.800000000000e+00 3.955917111902e-128 
1.900000000000e+00 -3.634730017066e-127 
2.000000000000e+00 4.013645482492e-126 
2.100000000000e+00 -3.216354653050e-125 
2.200000000000e+00 -9.701786982059e-125 
2.300000000000e+00 -2.685243522659e-125 
2.400000000000e+00 4.360784624975e-126 
2.500000000000e+00 -1.148620078712e-126 
2.600000000000e+00 2.821081804086e-127 
2.700000000000e+00 -6.757273823113e-128 
2.800000000000e+00 1.573670197065e-128 
2.900000000000e+00 -3.515497271313e-129 
3.000000000000e+00 7.415144288519e-130 
3.100000000000e+00 -1.474548260195e-130 
3.200000000000e+00 2.827897151157e-131 
3.300000000000e+00 -5.407077883739e-132 
3.400000000000e+00 1.062475279305e-132 
3.500000000000e+00 -2.219490518883e-133 
3.600000000000e+00 5.049331093269e-134 
3.700000000000e+00 -1.117297126565e-134 
3.800000000000e+00 1.676980270200e-135 
3.900000000000e+00 -6.200085032476e-139 
4.000000000000e+00 0.000000000000e+00 
 ZONE T="TIME=2.880000000000e+04"
0.000000000000e+00 0.000000000000e+00 
1.000000000000e-01 3.069222481852e-137 
2.000000000000e-01 -1.344007900167e-136 
3.000000000000e-01 5.537883322880e-136 
4.000000000000e-01 -2.289634984601e-135 
5.000000000000e-01 9.485847210937e-135 
6.000000000000e-01 -3.918326831512e-134 
7.000000000000e-01 1.598476013698e-133 
8.000000000000e-01 -6.377367982526e-133 
9.000000000000e-01 2.491785888359e-132 
1.000000000000e+00 -9.654885490088e-132 
1.100000000000e+00 3.750369712287e-131 
1.200000000000e+00 -1.468184884064e-130 
1.300000000000e+00 5.806500666383e-130 
1.400000000000e+00 -2.319119975397e-129 
1.500000000000e+00 9.311575267635e-129 
1.600000000000e+00 -3.731734961286e-128 
1.700000000000e+00 1.474209034472e-127 
1.800000000000e+00 -5.698626248247e-127 
1.900000000000e+00 2.052459242448e-126 
2.000000000000e+00 -2.812878588593e-126 
2.100000000000e+00 -7.041514886228e-125 
2.200000000000e+00 4.413389889565e-125 
2.300000000000e+00 1.426581737235e-124 
2.400000000000e+00 -2.294078840620e-125 
2.500000000000e+00 6.927605530358e-126 
2.600000000000e+00 -1.944453268508e-126 
2.700000000000e+00 5.106103148820e-127 
2.800000000000e+00 -1.293641968204e-127 
2.900000000000e+00 3.204932367547e-128 
3.000000000000e+00 -7.794863924677e-129 
3.100000000000e+00 1.855074509612e-129 
3.200000000000e+00 -4.311902767798e-130 
3.300000000000e+00 9.894020858841e-131 
3.400000000000e+00 -2.284010153152e-131 
3.500000000000e+00 5.373824124069e-132 
3.600000000000e+00 -1.283078645100e-132 
3.700000000000e+00 3.170598577388e-133 
3.800000000000e+00 -8.548880741871e-134 
3.900000000000e+00 2.269309766827e-134 
4.000000000000e+00 0.000000000000e+00 
 ZONE T="TIME=3.600000000000e+04"
0.000000000000e+00 0.000000000000e+00 
1.000000000000e-01 -4.196967742891e-135 
2.000000000000e-01 2.051652329711e-134 
3.000000000000e-01 -8.525074220032e-134 
4.000000000000e-01 3.347346813015e-133 
5.000000000000e-01 -1.253568626684e-132 
6.000000000000e-01 4.481684230157e-132 
7.000000000000e-01 -1.591482291030e-131 
8.000000000000e-01 6.030079043768e-131 
9.000000000000e-01 -2.420908551327e-130 
1.000000000000e+00 9.709803229389e-130 
1.100000000000e+00 -3.783124298232e-129 
1.200000000000e+00 1.414055881658e-128 
1.300000000000e+00 -4.875201925891e-128 
1.400000000000e+00 1.311918075115e-127 
1.500000000000e+00 -3.438368699815e-128 
1.600000000000e+00 -2.500232070992e-126 
1.700000000000e+00 1.912603272261e-125 
1.800000000000e+00 -1.199400667098e-124 
1.900000000000e+00 9.358187684753e-124 
2.000000000000e+00 -9.300784521201e-123 
2.100000000000e+00 6.968511738542e-122 
2.200000000000e+00 2.242499743651e-121 
2.300000000000e+00 6.950990915995e-122 
2.400000000000e+00 -1.134882689106e-122 
2.500000000000e+00 3.041720875278e-123 
2.600000000000e+00 -7.612787168115e-124 
2.700000000000e+00 1.849313241665e-124 
2.800000000000e+00 -4.366483508686e-125 
2.900000000000e+00 9.934671320297e-126 
3.000000000000e+00 -2.155071952034e-126 
3.100000000000e+00 4.462439035728e-127 
3.200000000000e+00 -8.998769136175e-128 
3.300000000000e+00 1.817593069915e-128 
3.400000000000e+00 -3.772211745362e-129 
3.500000000000e+00 8.235669929392e-130 
3.600000000000e+00 -1.908533765359e-130 
3.700000000000e+00 4.416182096572e-131 
3.800000000000e+00 -8.881542556416e-132 
3.900000000000e+00 1.353428005866e-132 
4.000000000000e+00 0.000000000000e+00 
 ZONE T="TIME=4.320000000000e+04"
0.000000000000e+00 0.000000000000e+00 
1.000000000000e-01 -2.888683144803e-133 
2.000000000000e-01 1.390383438675e-132 
3.000000000000e-01 -5.774186130354e-132 
4.000000000000e-01 2.283763309179e-131 
5.000000000000e-01 -8.677141689241e-131 
6.000000000000e-01 3.172757615243e-130 
7.000000000000e-01 -1.154177789609e-129 
8.000000000000e-01 4.416332812366e-129 
9.000000000000e-01 -1.764581367393e-128 
1.000000000000e+00 7.035272208887e-128 
1.100000000000e+00 -2.740541200698e-127 
1.200000000000e+00 1.033461390224e-126 
1.300000000000e+00 -3.662455875610e-126 
1.400000000000e+00 1.085760061229e-125 
1.500000000000e+00 -1.437521047102e-125 
1.600000000000e+00 -9.862582617688e-125 
1.700000000000e+00 9.366619780764e-124 
1.800000000000e+00 -6.345023631902e-123 
1.900000000000e+00 5.270065969571e-122 
2.000000000000e+00 -5.468664924643e-121 
2.100000000000e+00 4.204394252937e-120 
2.200000000000e+00 1.324053993899e-119 
2.300000000000e+00 3.994728525543e-120 
2.400000000000e+00 -6.524608466434e-121 
2.500000000000e+00 1.743076363315e-121 
2.600000000000e+00 -4.339876365993e-122 
2.700000000000e+00 1.049504475950e-122 
2.800000000000e+00 -2.465979136622e-123 
2.900000000000e+00 5.574185869705e-124 
3.000000000000e+00 -1.197781937785e-124 
3.100000000000e+00 2.448647969129e-125 
3.200000000000e+00 -4.864610311414e-126 
3.300000000000e+00 9.675150232758e-127 
3.400000000000e+00 -1.978508826117e-127 
3.500000000000e+00 4.267528891625e-128 
3.600000000000e+00 -9.823613616896e-129 
3.700000000000e+00 2.244793226810e-129 
3.800000000000e+00 -4.266661343373e-130 
3.900000000000e+00 5.427581509835e-131 
4.000000000000e+00 0.000000000000e+00 
 ZONE T="TIME=5.040000000000e+04"
0.000000000000e+00 0.000000000000e+00 
1.000000000000e-01 -1.025070707050e-131 
2.000000000000e-01 4.908253392069e-131 
3.000000000000e-01 -2.038762485907e-130 
4.000000000000e-01 8.084322840603e-130 
5.000000000000e-01 -3.085611366651e-129 
6.000000000000e-01 1.135673862413e-128 
7.000000000000e-01 -4.159145450366e-128 
8.000000000000e-01 1.595867766161e-127 
9.000000000000e-01 -6.369867689015e-127 
1.000000000000e+00 2.536262376320e-126 
1.100000000000e+00 -9.881775160996e-126 
1.200000000000e+00 3.735994465271e-125 
1.300000000000e+00 -1.333666913832e-124 
1.400000000000e+00 4.046961322372e-124 
1.500000000000e+00 -6.341497335352e-124 
1.600000000000e+00 -2.738195839043e-123 
1.700000000000e+00 2.926709634817e-122 
1.800000000000e+00 -2.052091800156e-121 
1.900000000000e+00 1.748617745367e-120 
2.000000000000e+00 -1.843041640058e-119 
2.100000000000e+00 1.425066009945e-118 
2.200000000000e+00 4.473758551097e-118 
2.300000000000e+00 1.354824717554e-118 
2.400000000000e+00 -2.208298583995e-119 
2.500000000000e+00 5.906961903955e-120 
2.600000000000e+00 -1.469179628551e-120 
2.700000000000e+00 3.547293671587e-121 
2.800000000000e+00 -8.316855453804e-122 
2.900000000000e+00 1.874257621411e-122 
3.000000000000e+00 -4.010319564334e-123 
3.100000000000e+00 8.153286409473e-124 
3.200000000000e+00 -1.609530894318e-124 
3.300000000000e+00 3.179976254171e-125 
3.400000000000e+00 -6.459776478544e-126 
3.500000000000e+00 1.384782983929e-126 
3.600000000000e+00 -3.172344027568e-127 
3.700000000000e+00 7.199302389891e-128 
3.800000000000e+00 -1.339485583040e-128 
3.900000000000e+00 1.580429745869e-129 
4.000000000000e+00 0.000000000000e+00 
 ZONE T="TIME=5.760000000000e+04"
0.000000000000e+00 0.000000000000e+00 
1.000000000000e-01 -2.298903171962e-130 
2.000000000000e-01 1.096463886680e-129 
3.000000000000e-01 -4.556666748227e-129 
4.000000000000e-01 1.810410649451e-128 
5.000000000000e-01 -6.930555157758e-128 
6.000000000000e-01 2.560863855819e-127 
7.000000000000e-01 -9.414718614123e-127 
8.000000000000e-01 3.618539443826e-126 
9.000000000000e-01 -1.443923092599e-125 
1.000000000000e+00 5.746832926100e-125 
1.100000000000e+00 -2.239937967663e-124 
1.200000000000e+00 8.482037535110e-124 
1.300000000000e+00 -3.039939002561e-123 
1.400000000000e+00 9.336104706688e-123 
1.500000000000e+00 -1.581691633365e-122 
1.600000000000e+00 -5.140048074114e-122 
1.700000000000e+00 6.029049001268e-121 
1.800000000000e+00 -4.333769299243e-120 
1.900000000000e+00 3.759879181269e-119 
2.000000000000e+00 -4.000621100389e-118 
2.100000000000e+00 3.089902493382e-117 
2.200000000000e+00 9.733504723030e-117 
2.300000000000e+00 3.001793674296e-117 
2.400000000000e+00 -4.869244987882e-118 
2.500000000000e+00 1.307295134718e-118 
2.600000000000e+00 -3.252274501128e-119 
2.700000000000e+00 7.844538469268e-120 
2.800000000000e+00 -1.835622846693e-120 
2.900000000000e+00 4.124894494418e-121 
3.000000000000e+00 -8.792212910579e-122 
3.100000000000e+00 1.779084618456e-122 
3.200000000000e+00 -3.493415894771e-123 
3.300000000000e+00 6.863271466862e-124 
3.400000000000e+00 -1.386036306070e-124 
3.500000000000e+00 2.953192959666e-125 
3.600000000000e+00 -6.724706568670e-126 
3.700000000000e+00 1.515171508265e-126 
3.800000000000e+00 -2.782508694368e-127 
3.900000000000e+00 3.146122308172e-128 
4.000000000000e+00 0.000000000000e+00 
 ZONE T="TIME=6.480000000000e+04"
0.000000000000e+00 0.000000000000e+00 
1.000000000000e-01 -2.550520932765e-129 
2.000000000000e-01 1.206310644420e-128 
3.000000000000e-01 -5.021333099564e-128 
4.000000000000e-01 2.003133844684e-127 
5.000000000000e-01 -7.708580320674e-127 
6.000000000000e-01 2.865835452194e-126 
7.000000000000e-01 -1.059580710060e-125 
8.000000000000e-01 4.083735601921e-125 
9.000000000000e-01 -1.630070114616e-124 
1.000000000000e+00 6.489078308356e-124 
1.100000000000e+00 -2.532264251230e-123 
1.200000000000e+00 9.613974561302e-123 
1.300000000000e+00 -3.463827651136e-122 
1.400000000000e+00 1.079684989057e-121 
1.500000000000e+00 -2.009679320076e-121 
1.600000000000e+00 -4.016805208057e-121 
1.700000000000e+00 5.746393113126e-120 
1.800000000000e+00 -4.334488651389e-119 
1.900000000000e+00 3.890400765516e-118 
2.000000000000e+00 -4.197943935529e-117 
2.100000000000e+00 3.190272922103e-116 
2.200000000000e+00 1.025026813299e-115 
2.300000000000e+00 3.377598254463e-116 
2.400000000000e+00 -5.388156701648e-117 
2.500000000000e+00 1.464783740110e-117 
2.600000000000e+00 -3.651436867733e-118 
2.700000000000e+00 8.789834945700e-119 
2.800000000000e+00 -2.047056562317e-119 
2.900000000000e+00 4.567077378948e-120 
3.000000000000e+00 -9.642251548772e-121 
3.100000000000e+00 1.928507309726e-121 
3.200000000000e+00 -3.737386474263e-122 
3.300000000000e+00 7.239244117637e-123 
3.400000000000e+00 -1.439679891563e-123 
3.500000000000e+00 3.015596456030e-124 
3.600000000000e+00 -6.739988832533e-125 
3.700000000000e+00 1.486708104975e-125 
3.800000000000e+00 -2.655169370321e-126 
3.900000000000e+00 2.762539581131e-127 
4.000000000000e+00 0.000000000000e+00 
 ZONE T="TIME=7.200000000000e+04"
0.000000000000e+00 0.000000000000e+00 
1.000000000000e-01 4.135192725854e-128 
2.000000000000e-01 -2.007838414501e-127 
3.000000000000e-01 8.312485598184e-127 
4.000000000000e-01 -3.276090725983e-126 
5.000000000000e-01 1.242149492765e-125 
6.000000000000e-01 -4.541873327942e-125 
7.000000000000e-01 1.653921897460e-124 
8.000000000000e-01 -6.323988240650e-124 
9.000000000000e-01 2.519180147766e-123 
1.000000000000e+00 -1.000993063529e-122 
1.100000000000e+00 3.889801074322e-122 
1.200000000000e+00 -1.465851947420e-121 
1.300000000000e+00 5.210719047984e-121 
1.400000000000e+00 -1.565065256572e-120 
1.500000000000e+00 2.206817485079e-120 
1.600000000000e+00 1.376813836074e-119 
1.700000000000e+00 -1.349614587286e-118 
1.800000000000e+00 9.131283715763e-118 
1.900000000000e+00 -7.547332796015e-117 
2.000000000000e+00 7.897218536475e-116 
2.100000000000e+00 -6.370041867596e-115 
2.200000000000e+00 -1.918520761775e-114 
2.300000000000e+00 -5.058401125472e-115 
2.400000000000e+00 8.576318734304e-116 
2.500000000000e+00 -2.231434112276e-116 
2.600000000000e+00 5.522298512257e-117 
2.700000000000e+00 -1.338589094811e-117 
2.800000000000e+00 3.169605350046e-118 
2.900000000000e+00 -7.248577670234e-119 
3.000000000000e+00 1.580449854763e-119 
3.100000000000e+00 -3.284638982778e-120 
3.200000000000e+00 6.639942522841e-121 
3.300000000000e+00 -1.344377777643e-121 
3.400000000000e+00 2.801080977911e-122 
3.500000000000e+00 -6.168300098158e-123 
3.600000000000e+00 1.453146890732e-123 
3.700000000000e+00 -3.396378731004e-124 
3.800000000000e+00 6.529374324428e-125 
3.900000000000e+00 -8.333819683340e-126 
4.000000000000e+00 0.000000000000e+00 
 ZONE T="TIME=7.920000000000e+04"
0.000000000000e+00 0.000000000000e+00 
1.000000000000e-01 3.081946113074e-126 
2.000000000000e-01 -1.477296924307e-125 
3.000000000000e-01 6.132453579927e-125 
4.000000000000e-01 -2.431820797511e-124 
5.000000000000e-01 9.291815264869e-124 
6.000000000000e-01 -3.427661057990e-123 
7.000000000000e-01 1.258429846554e-122 
8.000000000000e-01 -4.832026430725e-122 
9.000000000000e-01 1.926601298312e-121 
1.000000000000e+00 -7.661506750575e-121 
1.100000000000e+00 2.983623038862e-120 
1.200000000000e+00 -1.128908355905e-119 
1.300000000000e+00 4.043648453730e-119 
1.400000000000e+00 -1.240806708446e-118 
1.500000000000e+00 2.067271146678e-118 
1.600000000000e+00 7.405356909594e-118 
1.700000000000e+00 -8.433976477783e-117 
1.800000000000e+00 5.988948524713e-116 
1.900000000000e+00 -5.143332822733e-115 
2.000000000000e+00 5.467146912557e-114 
2.100000000000e+00 -4.305655416646e-113 
2.200000000000e+00 -1.334028905796e-112 
2.300000000000e+00 -3.921903128865e-113 
2.400000000000e+00 6.450092816241e-114 
2.500000000000e+00 -1.716118805206e-114 
2.600000000000e+00 4.264154209467e-115 
2.700000000000e+00 -1.030206493121e-115 
2.800000000000e+00 2.419466965998e-116 
2.900000000000e+00 -5.466388008239e-117 
3.000000000000e+00 1.173545032693e-117 
3.100000000000e+00 -2.395466026537e-118 
3.200000000000e+00 4.749988612487e-119 
3.300000000000e+00 -9.429343376634e-120 
3.400000000000e+00 1.925192093066e-120 
3.500000000000e+00 -4.149533574034e-121 
3.600000000000e+00 9.559368775076e-122 
3.700000000000e+00 -2.182555308121e-122 
3.800000000000e+00 4.091056129836e-123 
3.900000000000e+00 -4.927666890381e-124 
4.000000000000e+00 0.000000000000e+00 
 ZONE T="TIME=8.640000000000e+04"
0.000000000000e+00 0.000000000000e+00 
1.000000000000e-01 9.516352620093e-125 
2.000000000000e-01 -4.547242872389e-124 
3.000000000000e-01 1.888972959862e-123 
4.000000000000e-01 -7.502972845467e-123 
5.000000000000e-01 2.872743962692e-122 
6.000000000000e-01 -1.062227663605e-121 
7.000000000000e-01 3.908268033747e-121 
8.000000000000e-01 -1.502276960629e-120 
9.000000000000e-01 5.990971971475e-120 
1.000000000000e+00 -2.382839261369e-119 
1.100000000000e+00 9.284498795556e-119 
1.200000000000e+00 -3.516686826657e-118 
1.300000000000e+00 1.262236728907e-117 
1.400000000000e+00 -3.895322566815e-117 
1.500000000000e+00 6.743579021940e-117 
1.600000000000e+00 2.050358977969e-116 
1.700000000000e+00 -2.472102652158e-115 
1.800000000000e+00 1.783064206520e-114 
1.900000000000e+00 -1.549171645099e-113 
2.000000000000e+00 1.654934280735e-112 
2.100000000000e+00 -1.296406276341e-111 
2.200000000000e+00 -4.048148748423e-111 
2.300000000000e+00 -1.225189912931e-111 
2.400000000000e+00 1.999774854543e-112 
2.500000000000e+00 -5.351516240512e-113 
2.600000000000e+00 1.331381916446e-113 
2.700000000000e+00 -3.214564195498e-114 
2.800000000000e+00 7.535537966290e-115 
2.900000000000e+00 -1.697772554750e-115 
3.000000000000e+00 3.631812055768e-116 
3.100000000000e+00 -7.382564908388e-117 
3.200000000000e+00 1.457324240013e-117 
3.300000000000e+00 -2.879399272218e-118 
3.400000000000e+00 5.849507223293e-119 
3.500000000000e+00 -1.253736029092e-119 
3.600000000000e+00 2.869962513440e-120 
3.700000000000e+00 -6.509945601096e-121 
3.800000000000e+00 1.214512092826e-121 
3.900000000000e+00 -1.453755645695e-122 
4.000000000000e+00 0.000000000000e+00 
 ZONE T="TIME=9.360000000000e+04"
0.000000000000e+00 0.000000000000e+00 
1.000000000000e-01 2.003382976919e-123 
2.000000000000e-01 -9.549592102379e-123 
3.000000000000e-01 3.969357577766e-122 
4.000000000000e-01 -1.578772894179e-121 
5.000000000000e-01 6.055306387965e-121 
6.000000000000e-01 -2.243490002810e-120 
7.000000000000e-01 8.269541561580e-120 
8.000000000000e-01 -3.181493578413e-119 
9.000000000000e-01 1.268922535934e-118 
1.000000000000e+00 -5.047564408008e-118 
1.100000000000e+00 1.967585848352e-117 
1.200000000000e+00 -7.459292601920e-117 
1.300000000000e+00 2.682120260909e-116 
1.400000000000e+00 -8.318029207702e-116 
1.500000000000e+00 1.485634809898e-115 
1.600000000000e+00 3.893441227467e-115 
1.700000000000e+00 -4.971022443296e-114 
1.800000000000e+00 3.637164037569e-113 
1.900000000000e+00 -3.192769421302e-112 
2.000000000000e+00 3.426604597647e-111 
2.100000000000e+00 -2.675180000376e-110 
2.200000000000e+00 -8.406172432813e-110 
2.300000000000e+00 -2.605622482450e-110 
2.400000000000e+00 4.226498335816e-111 
2.500000000000e+00 -1.136461772153e-111 
2.600000000000e+00 2.830570720855e-112 
2.700000000000e+00 -6.831584435206e-113 
2.800000000000e+00 1.599242978920e-113 
2.900000000000e+00 -3.595517795407e-114 
3.000000000000e+00 7.670748930169e-115 
3.100000000000e+00 -1.554455508163e-115 
3.200000000000e+00 3.058277830447e-116 
3.300000000000e+00 -6.021358198118e-117 
3.400000000000e+00 1.218594136568e-117 
3.500000000000e+00 -2.600362746096e-118 
3.600000000000e+00 5.921607400506e-119 
3.700000000000e+00 -1.336206779504e-119 
3.800000000000e+00 2.487118309362e-120 
3.900000000000e+00 -2.981309857182e-121 
4.000000000000e+00 0.000000000000e+00 
 ZONE T="TIME=1.008000000000e+05"
0.000000000000e+00 0.000000000000e+00 
1.000000000000e-01 2.844457000217e-122 
2.000000000000e-01 -1.350808733263e-121 
3.000000000000e-01 5.619866284447e-121 
4.000000000000e-01 -2.240133429978e-120 
5.000000000000e-01 8.616336383533e-120 
6.000000000000e-01 -3.202975456715e-119 
7.000000000000e-01 1.184218547653e-118 
8.000000000000e-01 -4.562532958819e-118 
9.000000000000e-01 1.819984709604e-117 
1.000000000000e+00 -7.240288691041e-117 
1.100000000000e+00 2.824159568450e-116 
1.200000000000e+00 -1.072224819286e-115 
1.300000000000e+00 3.866993167967e-115 
1.400000000000e+00 -1.209334668753e-114 
1.500000000000e+00 2.269628067014e-114 
1.600000000000e+00 4.515593701135e-114 
1.700000000000e+00 -6.506367779440e-113 
1.800000000000e+00 4.888869287283e-112 
1.900000000000e+00 -4.370979616868e-111 
2.000000000000e+00 4.731255561404e-110 
2.100000000000e+00 -3.678979326006e-109 
2.200000000000e+00 -1.166916808703e-108 
2.300000000000e+00 -3.750437599092e-109 
2.400000000000e+00 6.025124918408e-110 
2.500000000000e+00 -1.631959211676e-110 
2.600000000000e+00 4.071755849436e-111 
2.700000000000e+00 -9.821459877959e-112 
2.800000000000e+00 2.294404772386e-112 
2.900000000000e+00 -5.142007011594e-113 
3.000000000000e+00 1.092547171940e-113 
3.100000000000e+00 -2.203593809033e-114 
3.200000000000e+00 4.313181430487e-115 
3.300000000000e+00 -8.445788606467e-116 
3.400000000000e+00 1.699084575341e-116 
3.500000000000e+00 -3.600570473778e-117 
3.600000000000e+00 8.131426985512e-118 
3.700000000000e+00 -1.819530607718e-118 
3.800000000000e+00 3.374495525073e-119 
3.900000000000e+00 -4.056183412459e-120 
4.000000000000e+00 0.000000000000e+00 
 ZONE T="TIME=1.080000000000e+05"
0.000000000000e+00 0.000000000000e+00 
1.000000000000e-01 1.286815872744e-121 
2.000000000000e-01 -5.954992764443e-121 
3.000000000000e-01 2.492648733750e-120 
4.000000000000e-01 -1.008845000139e-119 
5.000000000000e-01 3.958349173178e-119 
6.000000000000e-01 -1.506002778165e-118 
7.000000000000e-01 5.685891902359e-118 
8.000000000000e-01 -2.211672258167e-117 
9.000000000000e-01 8.825694763676e-117 
1.000000000000e+00 -3.511231997246e-116 
1.100000000000e+00 1.374917408085e-115 
1.200000000000e+00 -5.269624741121e-115 
1.300000000000e+00 1.938735586509e-114 
1.400000000000e+00 -6.397635165486e-114 
1.500000000000e+00 1.557580890911e-113 
1.600000000000e+00 -1.285203042828e-113 
1.700000000000e+00 -1.144024192582e-112 
1.800000000000e+00 1.313867801219e-111 
1.900000000000e+00 -1.446849408342e-110 
2.000000000000e+00 1.705377316847e-109 
2.100000000000e+00 -1.291155138421e-108 
2.200000000000e+00 -4.406640333742e-108 
2.300000000000e+00 -1.812752544842e-108 
2.400000000000e+00 2.739903054562e-109 
2.500000000000e+00 -7.770551157022e-110 
2.600000000000e+00 1.958522859300e-110 
2.700000000000e+00 -4.705215895143e-111 
2.800000000000e+00 1.084680332710e-111 
2.900000000000e+00 -2.380904135893e-112 
3.000000000000e+00 4.921912319169e-113 
3.100000000000e+00 -9.603209639918e-114 
3.200000000000e+00 1.809850686378e-114 
3.300000000000e+00 -3.397574735758e-115 
3.400000000000e+00 6.513832163535e-116 
3.500000000000e+00 -1.301642040814e-116 
3.600000000000e+00 2.729556405972e-117 
3.700000000000e+00 -5.623401472067e-118 
3.800000000000e+00 9.916684011119e-119 
3.900000000000e+00 -1.163774428964e-119 
4.000000000000e+00 0.000000000000e+00 
 ZONE T="TIME=1.152000000000e+05"
0.000000000000e+00 0.000000000000e+00 
1.000000000000e-01 -7.658668457348e-120 
2.000000000000e-01 3.692446280048e-119 
3.000000000000e-01 -1.531045773154e-118 
4.000000000000e-01 6.048788321532e-118 
5.000000000000e-01 -2.298439217871e-117 
6.000000000000e-01 8.417693025493e-117 
7.000000000000e-01 -3.068836338378e-116 
8.000000000000e-01 1.174695428472e-115 
9.000000000000e-01 -4.685593723466e-115 
1.000000000000e+00 1.864432355230e-114 
1.100000000000e+00 -7.254347665402e-114 
1.200000000000e+00 2.736258487561e-113 
1.300000000000e+00 -9.726903183070e-113 
1.400000000000e+00 2.917188388477e-112 
1.500000000000e+00 -4.153229853563e-112 
1.600000000000e+00 -2.439613138511e-111 
1.700000000000e+00 2.411027825853e-110 
1.800000000000e+00 -1.645309266069e-109 
1.900000000000e+00 1.371712624437e-108 
2.000000000000e+00 -1.433198197585e-107 
2.100000000000e+00 1.124659933754e-106 
2.200000000000e+00 3.465333689134e-106 
2.300000000000e+00 9.799627529910e-107 
2.400000000000e+00 -1.633193273603e-107 
2.500000000000e+00 4.304969546973e-108 
2.600000000000e+00 -1.067683445639e-108 
2.700000000000e+00 2.582585953859e-109 
2.800000000000e+00 -6.084836575522e-110 
2.900000000000e+00 1.381381538363e-110 
3.000000000000e+00 -2.983834205349e-111 
3.100000000000e+00 6.134369600808e-112 
3.200000000000e+00 -1.225859488849e-112 
3.300000000000e+00 2.453145666085e-113 
3.400000000000e+00 -5.050446896425e-114 
3.500000000000e+00 1.098191647199e-114 
3.600000000000e+00 -2.553438157033e-115 
3.700000000000e+00 5.885190920982e-116 
3.800000000000e+00 -1.113601725093e-116 
3.900000000000e+00 1.369299886063e-117 
4.000000000000e+00 0.000000000000e+00 
 ZONE T="TIME=1.224000000000e+05"
0.000000000000e+00 0.000000000000e+00 
1.000000000000e-01 -3.291027739680e-118 
2.000000000000e-01 1.576281396832e-117 
3.000000000000e-01 -6.546228008723e-117 
4.000000000000e-01 2.596375822033e-116 
5.000000000000e-01 -9.917490644135e-116 
6.000000000000e-01 3.655139851351e-115 
7.000000000000e-01 -1.340483234083e-114 
8.000000000000e-01 5.145555979863e-114 
9.000000000000e-01 -2.052778051648e-113 
1.000000000000e+00 8.168757695073e-113 
1.100000000000e+00 -3.182207241579e-112 
1.200000000000e+00 1.203748070400e-111 
1.300000000000e+00 -4.305618379410e-111 
1.400000000000e+00 1.314735449313e-110 
1.500000000000e+00 -2.133175778835e-110 
1.600000000000e+00 -8.296863593729e-110 
1.700000000000e+00 9.176426901230e-109 
1.800000000000e+00 -6.479549225729e-108 
1.900000000000e+00 5.546016981228e-107 
2.000000000000e+00 -5.872837197352e-106 
2.100000000000e+00 4.585673275790e-105 
2.200000000000e+00 1.432433022371e-104 
2.300000000000e+00 4.302468032083e-105 
2.400000000000e+00 -7.045816130353e-106 
2.500000000000e+00 1.881553651056e-106 
2.600000000000e+00 -4.681011341415e-107 