 TITLE = "Profiles along polylines"
 VARIABLES = "DIST" "CONCENTRATION1" 
 ZONE T="TIME=0.000000000000e+00"
0.000000000000e+00 0.000000000000e+00 
1.000000000000e-01 0.000000000000e+00 
2.000000000000e-01 0.000000000000e+00 
3.000000000000e-01 0.000000000000e+00 
4.000000000000e-01 0.000000000000e+00 
5.000000000000e-01 0.000000000000e+00 
6.000000000000e-01 0.000000000000e+00 
7.000000000000e-01 0.000000000000e+00 
8.000000000000e-01 0.000000000000e+00 
9.000000000000e-01 0.000000000000e+00 
1.000000000000e+00 0.000000000000e+00 
1.100000000000e+00 0.000000000000e+00 
1.200000000000e+00 0.000000000000e+00 
1.300000000000e+00 0.000000000000e+00 
1.400000000000e+00 0.000000000000e+00 
1.500000000000e+00 0.000000000000e+00 
1.600000000000e+00 0.000000000000e+00 
1.700000000000e+00 0.000000000000e+00 
1.800000000000e+00 0.000000000000e+00 
1.900000000000e+00 0.000000000000e+00 
2.000000000000e+00 0.000000000000e+00 
2.100000000000e+00 0.000000000000e+00 
2.200000000000e+00 0.000000000000e+00 
2.300000000000e+00 0.000000000000e+00 
2.400000000000e+00 0.000000000000e+00 
2.500000000000e+00 0.000000000000e+00 
2.600000000000e+00 0.000000000000e+00 
2.700000000000e+00 0.000000000000e+00 
2.800000000000e+00 0.000000000000e+00 
2.900000000000e+00 0.000000000000e+00 
3.000000000000e+00 0.000000000000e+00 
3.100000000000e+00 0.000000000000e+00 
3.200000000000e+00 0.000000000000e+00 
3.300000000000e+00 0.000000000000e+00 
3.400000000000e+00 0.000000000000e+00 
3.500000000000e+00 0.000000000000e+00 
3.600000000000e+00 0.000000000000e+00 
3.700000000000e+00 0.000000000000e+00 
3.800000000000e+00 0.000000000000e+00 
3.900000000000e+00 0.000000000000e+00 
4.000000000000e+00 0.000000000000e+00 
 TITLE = "Profiles along polylines"
 VARIABLES = "DIST" "CONCENTRATION1" 
 ZONE T="TIME=7.200000000000e+03"
0.000000000000e+00 0.000000000000e+00 
1.000000000000e-01 9.827871469652e-94 
2.000000000000e-01 -3.392783445150e-93 
3.000000000000e-01 9.341341040952e-93 
4.000000000000e-01 -1.502358141345e-92 
5.000000000000e-01 -4.530143891340e-92 
6.000000000000e-01 4.716389733778e-91 
7.000000000000e-01 -8.905457754000e-91 
8.000000000000e-01 -9.555920638752e-90 
9.000000000000e-01 8.397169198663e-89 
1.000000000000e+00 -4.161785492544e-88 
1.100000000000e+00 1.875511806795e-87 
1.200000000000e+00 -8.477274234601e-87 
1.300000000000e+00 3.820835209384e-86 
1.400000000000e+00 -1.706384221271e-85 
1.500000000000e+00 7.291438308419e-85 
1.600000000000e+00 -2.143871566164e-84 
1.700000000000e+00 -2.546887385983e-83 
1.800000000000e+00 6.471768144417e-82 
1.900000000000e+00 3.199175072873e-82 
2.000000000000e+00 -2.263971404161e-81 
2.100000000000e+00 -1.368779880893e-80 
2.200000000000e+00 3.672380538324e-80 
2.300000000000e+00 -1.398800727899e-79 
2.400000000000e+00 1.471764107862e-78 
2.500000000000e+00 1.480118768346e-77 
2.600000000000e+00 1.516965657277e-76 
2.700000000000e+00 9.907806231819e-77 
2.800000000000e+00 -3.503494452972e-77 
2.900000000000e+00 7.469563316618e-78 
3.000000000000e+00 -1.481664951469e-78 
3.100000000000e+00 3.123297965914e-79 
3.200000000000e+00 -7.088572424751e-80 
3.300000000000e+00 1.695652993492e-80 
3.400000000000e+00 -4.182896206058e-81 
3.500000000000e+00 1.049826956575e-81 
3.600000000000e+00 -2.669962420154e-82 
3.700000000000e+00 6.913778653671e-83 
3.800000000000e+00 -1.834060538422e-83 
3.900000000000e+00 4.687176752021e-84 
4.000000000000e+00 0.000000000000e+00 
 ZONE T="TIME=1.440000000000e+04"
0.000000000000e+00 0.000000000000e+00 
1.000000000000e-01 5.149428015842e-92 
2.000000000000e-01 -1.554059089900e-91 
3.000000000000e-01 3.028401390198e-91 
4.000000000000e-01 1.751445268200e-91 
5.000000000000e-01 -5.607289223645e-90 
6.000000000000e-01 2.516391404922e-89 
7.000000000000e-01 2.353199227981e-89 
8.000000000000e-01 -8.381651939072e-88 
9.000000000000e-01 4.576840775451e-87 
1.000000000000e+00 -1.603866314162e-86 
1.100000000000e+00 5.284409074207e-86 
1.200000000000e+00 -1.878616760181e-85 
1.300000000000e+00 6.493750987823e-85 
1.400000000000e+00 -1.650097859739e-84 
1.500000000000e+00 -4.253411510466e-84 
1.600000000000e+00 1.749115235663e-82 
1.700000000000e+00 -3.537603288590e-81 
1.800000000000e+00 3.900640834044e-80 
1.900000000000e+00 8.479605812893e-80 
2.000000000000e+00 -1.229806608619e-79 
2.100000000000e+00 -6.852521882729e-79 
2.200000000000e+00 9.936539724725e-79 
2.300000000000e+00 -6.413588221530e-78 
2.400000000000e+00 4.620665582500e-77 
2.500000000000e+00 4.501755747560e-76 
2.600000000000e+00 5.376892652456e-75 
2.700000000000e+00 5.559107228872e-75 
2.800000000000e+00 -3.291624108504e-76 
2.900000000000e+00 -2.794191731501e-77 
3.000000000000e+00 1.434903963568e-77 
3.100000000000e+00 -3.980669151090e-78 
3.200000000000e+00 1.021000592716e-78 
3.300000000000e+00 -2.604003012007e-79 
3.400000000000e+00 6.666102987261e-80 
3.500000000000e+00 -1.709817472856e-80 
3.600000000000e+00 4.388964083252e-81 
3.700000000000e+00 -1.126209666306e-81 
3.800000000000e+00 2.832625207842e-82 
3.900000000000e+00 -5.836506871791e-83 
4.000000000000e+00 0.000000000000e+00 
 ZONE T="TIME=2.160000000000e+04"
0.000000000000e+00 0.000000000000e+00 
1.000000000000e-01 7.741834718641e-91 
2.000000000000e-01 -1.072868832595e-90 
3.000000000000e-01 -4.975766659522e-90 
4.000000000000e-01 4.983206354185e-89 
5.000000000000e-01 -2.347369658924e-88 
6.000000000000e-01 3.231040119023e-88 
7.000000000000e-01 4.084759291680e-87 
8.000000000000e-01 -2.822373917116e-86 
9.000000000000e-01 5.464056408505e-86 
1.000000000000e+00 2.467234799581e-85 
1.100000000000e+00 -2.708159403451e-84 
1.200000000000e+00 1.646593430210e-83 
1.300000000000e+00 -9.041723118036e-83 
1.400000000000e+00 5.051939525399e-82 
1.500000000000e+00 -3.067972962755e-81 
1.600000000000e+00 2.214007194190e-80 
1.700000000000e+00 -1.962271430210e-79 
1.800000000000e+00 8.729353400608e-79 
1.900000000000e+00 6.170294614083e-78 
2.000000000000e+00 1.335863851898e-78 
2.100000000000e+00 -1.846115154435e-77 
2.200000000000e+00 -1.006541939034e-77 
2.300000000000e+00 -2.538322710822e-76 
2.400000000000e+00 -5.285806492649e-76 
2.500000000000e+00 -9.629568114786e-75 
2.600000000000e+00 1.959055736454e-74 
2.700000000000e+00 8.819283357702e-74 
2.800000000000e+00 1.081837213101e-74 
2.900000000000e+00 -3.914144918911e-75 
3.000000000000e+00 9.011190603797e-76 
3.100000000000e+00 -2.038290044998e-76 
3.200000000000e+00 4.802242427530e-77 
3.300000000000e+00 -1.173212347726e-77 
3.400000000000e+00 2.929568864774e-78 
3.500000000000e+00 -7.399380858593e-79 
3.600000000000e+00 1.883770389126e-79 
3.700000000000e+00 -4.843220108988e-80 
3.800000000000e+00 1.250498650359e-80 
3.900000000000e+00 -2.893752701910e-81 
4.000000000000e+00 0.000000000000e+00 
 ZONE T="TIME=2.880000000000e+04"
0.000000000000e+00 0.000000000000e+00 
1.000000000000e-01 -7.951836311411e-90 
2.000000000000e-01 1.012860712087e-88 
3.000000000000e-01 -6.264366988594e-88 
4.000000000000e-01 2.813404051493e-87 
5.000000000000e-01 -8.003425196053e-87 
6.000000000000e-01 -8.229288436519e-87 
7.000000000000e-01 2.213712208481e-85 
8.000000000000e-01 -7.995851368971e-85 
9.000000000000e-01 -1.554590810017e-84 
1.000000000000e+00 3.134042499174e-83 
1.100000000000e+00 -2.153048911088e-82 
1.200000000000e+00 1.171572908717e-81 
1.300000000000e+00 -6.042140588972e-81 
1.400000000000e+00 3.169903793997e-80 
1.500000000000e+00 -1.772354706454e-79 
1.600000000000e+00 1.120340372068e-78 
1.700000000000e+00 -7.699624573326e-78 
1.800000000000e+00 8.509601752280e-78 
1.900000000000e+00 2.696433411421e-76 
2.000000000000e+00 2.297999665053e-76 
2.100000000000e+00 -3.759435608388e-76 
2.200000000000e+00 -1.490248192934e-75 
2.300000000000e+00 -8.911840977782e-75 
2.400000000000e+00 -7.748814207852e-74 
2.500000000000e+00 -1.006780610280e-72 
2.600000000000e+00 -4.049346570160e-72 
2.700000000000e+00 -7.463615080127e-73 
2.800000000000e+00 6.218752082728e-73 
2.900000000000e+00 -1.328478642252e-73 
3.000000000000e+00 2.630011250523e-74 
3.100000000000e+00 -5.573353897262e-75 
3.200000000000e+00 1.270577506228e-75 
3.300000000000e+00 -3.046588494812e-76 
3.400000000000e+00 7.520409056385e-77 
3.500000000000e+00 -1.886190241696e-77 
3.600000000000e+00 4.787589280751e-78 
3.700000000000e+00 -1.234340000159e-78 
3.800000000000e+00 3.234574492170e-79 
3.900000000000e+00 -7.891437229537e-80 
4.000000000000e+00 0.000000000000e+00 
 ZONE T="TIME=3.600000000000e+04"
0.000000000000e+00 0.000000000000e+00 
1.000000000000e-01 -6.243148816358e-88 
2.000000000000e-01 4.567469743085e-87 
3.000000000000e-01 -2.374320312312e-86 
4.000000000000e-01 9.556616440958e-86 
5.000000000000e-01 -2.327339165462e-85 
6.000000000000e-01 -4.749654971475e-85 
7.000000000000e-01 7.387318387725e-84 
8.000000000000e-01 -2.092739991212e-83 
9.000000000000e-01 -8.641732160992e-83 
1.000000000000e+00 1.176203204203e-81 
1.100000000000e+00 -7.663043630342e-81 
1.200000000000e+00 4.104689791808e-80 
1.300000000000e+00 -2.097164211976e-79 
1.400000000000e+00 1.088346447706e-78 
1.500000000000e+00 -5.981866576595e-78 
1.600000000000e+00 3.653550189390e-77 
1.700000000000e+00 -2.291193916993e-76 
1.800000000000e+00 -7.547690593127e-77 
1.900000000000e+00 8.331373476011e-75 
2.000000000000e+00 9.227669814677e-75 
2.100000000000e+00 -6.872535773937e-75 
2.200000000000e+00 -5.763846007275e-74 
2.300000000000e+00 -2.554810979919e-73 
2.400000000000e+00 -3.005746913070e-72 
2.500000000000e+00 -3.711209030756e-71 
2.600000000000e+00 -1.763272100599e-70 
2.700000000000e+00 -7.988206748546e-71 
2.800000000000e+00 1.829723518854e-71 
2.900000000000e+00 -3.102704945356e-72 
3.000000000000e+00 5.515380230727e-73 
3.100000000000e+00 -1.103759392732e-73 
3.200000000000e+00 2.435887160729e-74 
3.300000000000e+00 -5.725614531936e-75 
3.400000000000e+00 1.395264194372e-75 
3.500000000000e+00 -3.471546513368e-76 
3.600000000000e+00 8.782756060891e-77 
3.700000000000e+00 -2.272323633401e-77 
3.800000000000e+00 6.051314637626e-78 
3.900000000000e+00 -1.548559283330e-78 
4.000000000000e+00 0.000000000000e+00 
 ZONE T="TIME=4.320000000000e+04"
0.000000000000e+00 0.000000000000e+00 
1.000000000000e-01 -1.469606864840e-86 
2.000000000000e-01 1.078552617232e-85 
3.000000000000e-01 -5.613289294928e-85 
4.000000000000e-01 2.251706208046e-84 
5.000000000000e-01 -5.401825764670e-84 
6.000000000000e-01 -1.159250055852e-83 
7.000000000000e-01 1.720965811706e-82 
8.000000000000e-01 -4.675298232326e-82 
9.000000000000e-01 -2.117744781824e-81 
1.000000000000e+00 2.769206165265e-80 
1.100000000000e+00 -1.795153302813e-79 
1.200000000000e+00 9.621285503834e-79 
1.300000000000e+00 -4.921029396036e-78 
1.400000000000e+00 2.554336487837e-77 
1.500000000000e+00 -1.401388724622e-76 
1.600000000000e+00 8.494088871680e-76 
1.700000000000e+00 -5.166069963144e-75 
1.800000000000e+00 -4.492468031526e-75 
1.900000000000e+00 1.896152594941e-73 
2.000000000000e+00 2.303436801640e-73 
2.100000000000e+00 -1.184727698473e-73 
2.200000000000e+00 -1.425750282552e-72 
2.300000000000e+00 -5.690643615091e-72 
2.400000000000e+00 -7.388869376717e-71 
2.500000000000e+00 -8.828609859586e-70 
2.600000000000e+00 -4.393644237461e-69 
2.700000000000e+00 -2.447937988928e-69 
2.800000000000e+00 3.624062919435e-70 
2.900000000000e+00 -4.896833605359e-71 
3.000000000000e+00 7.421492983020e-72 
3.100000000000e+00 -1.335702929567e-72 
3.200000000000e+00 2.751814639359e-73 
3.300000000000e+00 -6.177640613464e-74 
3.400000000000e+00 1.458645011221e-74 
3.500000000000e+00 -3.555559043948e-75 
3.600000000000e+00 8.916395846498e-76 
3.700000000000e+00 -2.326346272520e-76 
3.800000000000e+00 6.434995355832e-77 
3.900000000000e+00 -1.811279472169e-77 
4.000000000000e+00 0.000000000000e+00 
 ZONE T="TIME=5.040000000000e+04"
0.000000000000e+00 0.000000000000e+00 
1.000000000000e-01 -1.604189015276e-85 
2.000000000000e-01 1.501240866642e-84 
3.000000000000e-01 -8.568710153935e-84 
4.000000000000e-01 3.630257835247e-83 
5.000000000000e-01 -9.308518505419e-83 
6.000000000000e-01 -1.573974302093e-82 
7.000000000000e-01 2.745464133900e-81 
8.000000000000e-01 -8.073959883537e-81 
9.000000000000e-01 -2.975027119893e-80 
1.000000000000e+00 4.243405426062e-79 
1.100000000000e+00 -2.803114545572e-78 
1.200000000000e+00 1.517934670902e-77 
1.300000000000e+00 -7.824170185400e-77 
1.400000000000e+00 4.089141637478e-76 
1.500000000000e+00 -2.258176401485e-75 
1.600000000000e+00 1.376472556841e-74 
1.700000000000e+00 -8.360888688950e-74 
1.800000000000e+00 -8.081554869518e-74 
1.900000000000e+00 3.052438301210e-72 
2.000000000000e+00 3.847035884233e-72 
2.100000000000e+00 -1.811552609723e-72 
2.200000000000e+00 -2.405601166557e-71 
2.300000000000e+00 -9.232612081401e-71 
2.400000000000e+00 -1.226505700357e-69 
2.500000000000e+00 -1.408507375245e-68 
2.600000000000e+00 -7.130412409652e-68 
2.700000000000e+00 -4.609830030553e-68 
2.800000000000e+00 4.298236797963e-69 
2.900000000000e+00 -3.201758600938e-70 
3.000000000000e+00 1.429434440520e-71 
3.100000000000e+00 2.094529765966e-72 
3.200000000000e+00 -1.109963113052e-72 
3.300000000000e+00 3.569061049088e-73 
3.400000000000e+00 -1.024433306793e-73 
3.500000000000e+00 2.792961658412e-74 
3.600000000000e+00 -7.328487292688e-75 
3.700000000000e+00 1.832932534243e-75 
3.800000000000e+00 -4.103705934557e-76 
3.900000000000e+00 5.319644453810e-77 
4.000000000000e+00 0.000000000000e+00 
 ZONE T="TIME=5.760000000000e+04"
0.000000000000e+00 0.000000000000e+00 
1.000000000000e-01 1.471678229150e-84 
2.000000000000e-01 3.160573088766e-84 
3.000000000000e-01 -4.914521466923e-83 
4.000000000000e-01 2.832015596673e-82 
5.000000000000e-01 -9.606987425003e-82 
6.000000000000e-01 -7.990651405298e-83 
7.000000000000e-01 2.087895630162e-80 
8.000000000000e-01 -8.816472815696e-80 
9.000000000000e-01 -5.818139695492e-80 
1.000000000000e+00 2.546167719042e-78 
1.100000000000e+00 -1.899736786570e-77 
1.200000000000e+00 1.085157039998e-76 
1.300000000000e+00 -5.802842135593e-76 
1.400000000000e+00 3.133596097693e-75 
1.500000000000e+00 -1.790288741220e-74 
1.600000000000e+00 1.134912741914e-73 
1.700000000000e+00 -7.239090512644e-73 
1.800000000000e+00 -3.083247726517e-73 
1.900000000000e+00 2.545136691443e-71 
2.000000000000e+00 3.204421649880e-71 
2.100000000000e+00 -2.078159168691e-71 
2.200000000000e+00 -2.142300269532e-70 
2.300000000000e+00 -8.252620097552e-70 
2.400000000000e+00 -1.028612558708e-68 
2.500000000000e+00 -1.044337410087e-67 
2.600000000000e+00 -5.283189028796e-67 
2.700000000000e+00 -4.700541364481e-67 
2.800000000000e+00 -4.616037502651e-69 
2.900000000000e+00 8.374341145707e-69 
3.000000000000e+00 -2.288813277926e-69 
3.100000000000e+00 5.505632835103e-70 
3.200000000000e+00 -1.335541241014e-70 
3.300000000000e+00 3.317837685999e-71 
3.400000000000e+00 -8.373322560825e-72 
3.500000000000e+00 2.128795488813e-72 
3.600000000000e+00 -5.434168969141e-73 
3.700000000000e+00 1.394109191914e-73 
3.800000000000e+00 -3.569914782857e-74 
3.900000000000e+00 8.223068342051e-75 
4.000000000000e+00 0.000000000000e+00 
 ZONE T="TIME=6.480000000000e+04"
0.000000000000e+00 0.000000000000e+00 
1.000000000000e-01 1.138022386573e-82 
2.000000000000e-01 -4.905385299788e-82 
3.000000000000e-01 1.743498107085e-81 
4.000000000000e-01 -4.816762180835e-81 
5.000000000000e-01 4.193557455399e-81 
6.000000000000e-01 6.077224228446e-80 
7.000000000000e-01 -3.784012684356e-79 
8.000000000000e-01 1.627883058854e-79 
9.000000000000e-01 1.002127928030e-77 
1.000000000000e+00 -8.217565753837e-77 
1.100000000000e+00 4.667456906053e-76 
1.200000000000e+00 -2.335694800380e-75 
1.300000000000e+00 1.133283115412e-74 
1.400000000000e+00 -5.578209607561e-74 
1.500000000000e+00 2.870287097123e-73 
1.600000000000e+00 -1.586852771164e-72 
1.700000000000e+00 8.135608328165e-72 
1.800000000000e+00 2.693103480199e-71 
1.900000000000e+00 -3.339918049035e-70 
2.000000000000e+00 -4.655440814263e-70 
2.100000000000e+00 -6.803653542621e-71 
2.200000000000e+00 2.347548219485e-69 
2.300000000000e+00 8.110478868610e-69 
2.400000000000e+00 1.422006050241e-67 
2.500000000000e+00 2.058673174482e-66 
2.600000000000e+00 1.071839683302e-65 
2.700000000000e+00 3.192625171414e-66 
2.800000000000e+00 -1.683838154354e-66 
2.900000000000e+00 3.571830622766e-67 
3.000000000000e+00 -7.127368012295e-68 
3.100000000000e+00 1.515064661459e-68 
3.200000000000e+00 -3.458013526446e-69 
3.300000000000e+00 8.297617131362e-70 
3.400000000000e+00 -2.049432662676e-70 
3.500000000000e+00 5.142279354783e-71 
3.600000000000e+00 -1.305450751160e-71 
3.700000000000e+00 3.365980354825e-72 
3.800000000000e+00 -8.832766457655e-73 
3.900000000000e+00 2.185851400730e-73 
4.000000000000e+00 0.000000000000e+00 
 ZONE T="TIME=7.200000000000e+04"
0.000000000000e+00 0.000000000000e+00 
1.000000000000e-01 3.094842322352e-81 
2.000000000000e-01 -1.682241385182e-80 
3.000000000000e-01 7.369150528983e-80 
4.000000000000e-01 -2.574587698731e-79 
5.000000000000e-01 4.838294234954e-79 
6.000000000000e-01 1.979109291838e-78 
7.000000000000e-01 -1.969211681734e-77 
8.000000000000e-01 3.691822252810e-77 
9.000000000000e-01 3.437562760248e-76 
1.000000000000e+00 -3.561927825299e-75 
1.100000000000e+00 2.187097633945e-74 
1.200000000000e+00 -1.143641603410e-73 
1.300000000000e+00 5.746178465161e-73 
1.400000000000e+00 -2.929662843975e-72 
1.500000000000e+00 1.571847801814e-71 
1.600000000000e+00 -9.205983833606e-71 
1.700000000000e+00 5.203917217264e-70 
1.800000000000e+00 1.029850401930e-69 
1.900000000000e+00 -1.987406533946e-68 
2.000000000000e+00 -2.694809759076e-68 
2.100000000000e+00 4.689443140589e-69 
2.200000000000e+00 1.537368462287e-67 
2.300000000000e+00 5.611400702364e-67 
2.400000000000e+00 8.363030954801e-66 
2.500000000000e+00 1.044737329898e-64 
2.600000000000e+00 5.389503952038e-64 
2.700000000000e+00 2.767633492478e-64 
2.800000000000e+00 -4.962505369612e-65 
2.900000000000e+00 7.805293557508e-66 
3.000000000000e+00 -1.333854817701e-66 
3.100000000000e+00 2.604473027236e-67 
3.200000000000e+00 -5.659513230291e-68 
3.300000000000e+00 1.317032242461e-68 
3.400000000000e+00 -3.188183083009e-69 
3.500000000000e+00 7.899116252614e-70 
3.600000000000e+00 -1.994852665084e-70 
3.700000000000e+00 5.170817752633e-71 
3.800000000000e+00 -1.389562419388e-71 
3.900000000000e+00 3.662432038920e-72 
4.000000000000e+00 0.000000000000e+00 
 ZONE T="TIME=7.920000000000e+04"
0.000000000000e+00 0.000000000000e+00 
1.000000000000e-01 5.938609044082e-80 
2.000000000000e-01 -3.673249704106e-79 
3.000000000000e-01 1.750615578802e-78 
4.000000000000e-01 -6.561564731872e-78 
5.000000000000e-01 1.401956328285e-77 
6.000000000000e-01 4.222722549667e-77 
7.000000000000e-01 -4.984020608296e-76 
8.000000000000e-01 1.121051482954e-75 
9.000000000000e-01 7.543083647650e-75 
1.000000000000e+00 -8.555462097775e-74 
1.100000000000e+00 5.383480648287e-73 
1.200000000000e+00 -2.851654394533e-72 
1.300000000000e+00 1.446926578946e-71 
1.400000000000e+00 -7.446922800049e-71 
1.500000000000e+00 4.037932255177e-70 
1.600000000000e+00 -2.396860542392e-69 
1.700000000000e+00 1.381494578549e-68 
1.800000000000e+00 2.406964905584e-68 
1.900000000000e+00 -5.201064082850e-67 
2.000000000000e+00 -7.051744781979e-67 
2.100000000000e+00 1.698587176282e-67 
2.200000000000e+00 4.106449858280e-66 
2.300000000000e+00 1.524381318109e-65 
2.400000000000e+00 2.190447636342e-64 
2.500000000000e+00 2.639633833249e-63 
2.600000000000e+00 1.355281951376e-62 
2.700000000000e+00 7.679088185778e-63 
2.800000000000e+00 -9.806134475515e-64 
2.900000000000e+00 1.237846912291e-64 
3.000000000000e+00 -1.786567376134e-65 
3.100000000000e+00 3.094907253106e-66 
3.200000000000e+00 -6.195907130872e-67 
3.300000000000e+00 1.361574252943e-67 
3.400000000000e+00 -3.165024033227e-68 
3.500000000000e+00 7.636109534385e-69 
3.600000000000e+00 -1.907761481072e-69 
3.700000000000e+00 5.007939237524e-70 
3.800000000000e+00 -1.415889560134e-70 
3.900000000000e+00 4.190824568331e-71 
4.000000000000e+00 0.000000000000e+00 
 ZONE T="TIME=8.640000000000e+04"
0.000000000000e+00 0.000000000000e+00 
1.000000000000e-01 9.052590417266e-79 
2.000000000000e-01 -6.302933892315e-78 
3.000000000000e-01 3.201651274584e-77 
4.000000000000e-01 -1.257633963001e-76 
5.000000000000e-01 2.890780257339e-76 
6.000000000000e-01 7.110742011611e-76 
7.000000000000e-01 -9.516416312144e-75 
8.000000000000e-01 2.364077710786e-74 
9.000000000000e-01 1.303622399446e-73 
1.000000000000e+00 -1.580534078434e-72 
1.100000000000e+00 1.011042127989e-71 
1.200000000000e+00 -5.401071312660e-71 
1.300000000000e+00 2.757914295990e-70 
1.400000000000e+00 -1.427964753595e-69 
1.500000000000e+00 7.794292340084e-69 
1.600000000000e+00 -4.664765320711e-68 
1.700000000000e+00 2.719502836358e-67 
1.800000000000e+00 4.377742930238e-67 
1.900000000000e+00 -1.015653448495e-65 
2.000000000000e+00 -1.379087193187e-65 
2.100000000000e+00 3.874025108343e-66 
2.200000000000e+00 8.104838604797e-65 
2.300000000000e+00 3.056102850539e-64 
2.400000000000e+00 4.281604871861e-63 
2.500000000000e+00 5.052189918597e-62 
2.600000000000e+00 2.580111260583e-61 
2.700000000000e+00 1.532083644824e-61 
2.800000000000e+00 -1.537607596317e-62 
2.900000000000e+00 1.527869499705e-63 
3.000000000000e+00 -1.662688791669e-64 
3.100000000000e+00 2.116207147074e-65 
3.200000000000e+00 -3.077196139552e-66 
3.300000000000e+00 4.848089535173e-67 
3.400000000000e+00 -7.959643611852e-68 
3.500000000000e+00 1.382213566769e-68 
3.600000000000e+00 -2.916195647818e-69 
3.700000000000e+00 9.470809171236e-70 
3.800000000000e+00 -4.598995103937e-70 
3.900000000000e+00 2.539985245604e-70 
4.000000000000e+00 0.000000000000e+00 
 ZONE T="TIME=9.360000000000e+04"
0.000000000000e+00 0.000000000000e+00 
1.000000000000e-01 1.140066930311e-77 
2.000000000000e-01 -9.086490862000e-77 
3.000000000000e-01 4.904307560698e-76 
4.000000000000e-01 -2.006175905470e-75 
5.000000000000e-01 4.881679224168e-75 
6.000000000000e-01 1.004918202998e-74 
7.000000000000e-01 -1.514298760318e-73 
8.000000000000e-01 4.056738236127e-73 
9.000000000000e-01 1.896956296008e-72 
1.000000000000e+00 -2.448008063092e-71 
1.100000000000e+00 1.588456144611e-70 
1.200000000000e+00 -8.546836355646e-70 
1.300000000000e+00 4.387493871375e-69 
1.400000000000e+00 -2.283122156885e-68 
1.500000000000e+00 1.253082046888e-67 
1.600000000000e+00 -7.550722946347e-67 
1.700000000000e+00 4.443705152108e-66 
1.800000000000e+00 6.672637345774e-66 
1.900000000000e+00 -1.649296990875e-64 
2.000000000000e+00 -2.241541434317e-64 
2.100000000000e+00 7.056057471045e-65 
2.200000000000e+00 1.325352008485e-63 
2.300000000000e+00 5.079173574393e-63 
2.400000000000e+00 6.954302849851e-62 
2.500000000000e+00 8.074679108048e-61 
2.600000000000e+00 4.098184236294e-60 
2.700000000000e+00 2.505366738797e-60 
2.800000000000e+00 -2.027091538950e-61 
2.900000000000e+00 1.451579577646e-62 
3.000000000000e+00 -6.574986636116e-64 
3.100000000000e+00 -8.800500030583e-65 
3.200000000000e+00 4.826795191720e-65 
3.300000000000e+00 -1.567484658045e-65 
3.400000000000e+00 4.520310156410e-66 
3.500000000000e+00 -1.232718445972e-66 
3.600000000000e+00 3.218987415920e-67 
3.700000000000e+00 -7.955368024607e-68 
3.800000000000e+00 1.736028900632e-68 
3.900000000000e+00 -2.013226957494e-69 
4.000000000000e+00 0.000000000000e+00 
 ZONE T="TIME=1.008000000000e+05"
0.000000000000e+00 0.000000000000e+00 
1.000000000000e-01 1.194484193672e-76 
2.000000000000e-01 -1.135581358038e-75 
3.000000000000e-01 6.534620406885e-75 
4.000000000000e-01 -2.779665523853e-74 
5.000000000000e-01 7.113360177525e-74 
6.000000000000e-01 1.226266630344e-73 
7.000000000000e-01 -2.094699204643e-72 
8.000000000000e-01 5.990959650703e-72 
9.000000000000e-01 2.399240222971e-71 
1.000000000000e+00 -3.303736642354e-70 
1.100000000000e+00 2.173438225703e-69 
1.200000000000e+00 -1.177399457957e-68 
1.300000000000e+00 6.074315019253e-68 
1.400000000000e+00 -3.175705340777e-67 
1.500000000000e+00 1.751946299162e-66 
1.600000000000e+00 -1.062417096447e-65 
1.700000000000e+00 6.308595385024e-65 
1.800000000000e+00 8.827646936933e-65 
1.900000000000e+00 -2.328565069475e-63 
2.000000000000e+00 -3.164702439561e-63 
2.100000000000e+00 1.099443193607e-63 
2.200000000000e+00 1.880826908456e-62 
2.300000000000e+00 7.329135460194e-62 
2.400000000000e+00 9.812329423993e-61 
2.500000000000e+00 1.123531004377e-59 
2.600000000000e+00 5.662917300157e-59 
2.700000000000e+00 3.533424943684e-59 
2.800000000000e+00 -2.307847797857e-60 
2.900000000000e+00 9.179645933948e-62 
3.000000000000e+00 1.236650125313e-62 
3.100000000000e+00 -5.729737055334e-63 
3.200000000000e+00 1.691938131264e-63 
3.300000000000e+00 -4.620367223350e-64 
3.400000000000e+00 1.230154675041e-64 
3.500000000000e+00 -3.220297908751e-65 
3.600000000000e+00 8.287822687907e-66 
3.700000000000e+00 -2.084955004156e-66 
3.800000000000e+00 4.972661302155e-67 
3.900000000000e+00 -9.145059819739e-68 
4.000000000000e+00 0.000000000000e+00 
 ZONE T="TIME=1.080000000000e+05"
0.000000000000e+00 0.000000000000e+00 
1.000000000000e-01 1.014442363274e-75 
2.000000000000e-01 -1.251617158135e-74 
3.000000000000e-01 7.737075276103e-74 
4.000000000000e-01 -3.424535438810e-73 
5.000000000000e-01 9.187689457447e-73 
6.000000000000e-01 1.310531267565e-72 
7.000000000000e-01 -2.578115760442e-71 
8.000000000000e-01 7.831356036775e-71 
9.000000000000e-01 2.685590571683e-70 
1.000000000000e+00 -3.970753258100e-69 
1.100000000000e+00 2.648973477218e-68 
1.200000000000e+00 -1.444707303637e-67 
1.300000000000e+00 7.490007086733e-67 
1.400000000000e+00 -3.933863978853e-66 
1.500000000000e+00 2.181182308698e-65 
1.600000000000e+00 -1.331053030365e-64 
1.700000000000e+00 7.974663906732e-64 
1.800000000000e+00 1.034488573913e-63 
1.900000000000e+00 -2.928257946733e-62 
2.000000000000e+00 -3.975899093133e-62 
2.100000000000e+00 1.512177130813e-62 
2.200000000000e+00 2.374904326171e-61 
2.300000000000e+00 9.411570130919e-61 
2.400000000000e+00 1.232211395523e-59 
2.500000000000e+00 1.392872374994e-58 
2.600000000000e+00 6.967750751053e-58 
2.700000000000e+00 4.415256818100e-58 
2.800000000000e+00 -2.297794029516e-59 
2.900000000000e+00 2.175202474781e-63 
3.000000000000e+00 3.676549534283e-61 
3.100000000000e+00 -1.150786394886e-61 
3.200000000000e+00 3.084768631708e-62 
3.300000000000e+00 -8.074096618568e-63 
3.400000000000e+00 2.101060303585e-63 
3.500000000000e+00 -5.430356756020e-64 
3.600000000000e+00 1.390664423756e-64 
3.700000000000e+00 -3.516592233798e-65 
3.800000000000e+00 8.605961431038e-66 
3.900000000000e+00 -1.745611992873e-66 
4.000000000000e+00 0.000000000000e+00 
 ZONE T="TIME=1.152000000000e+05"
0.000000000000e+00 0.000000000000e+00 
1.000000000000e-01 6.243356254740e-75 
2.000000000000e-01 -1.228214399050e-73 
3.000000000000e-01 8.252487605129e-73 
4.000000000000e-01 -3.807670346661e-72 
5.000000000000e-01 1.069334966563e-71 
6.000000000000e-01 1.232902355112e-71 
7.000000000000e-01 -2.865407712444e-70 
8.000000000000e-01 9.216730899340e-70 
9.000000000000e-01 2.689596786575e-69 
1.000000000000e+00 -4.310850076742e-68 
1.100000000000e+00 2.917930646684e-67 
1.200000000000e+00 -1.602356468265e-66 
1.300000000000e+00 8.348592336586e-66 
1.400000000000e+00 -4.405157059909e-65 
1.500000000000e+00 2.454966403229e-64 
1.600000000000e+00 -1.507687131840e-63 
1.700000000000e+00 9.115665966816e-63 
1.800000000000e+00 1.088017480475e-62 
1.900000000000e+00 -3.330424393036e-61 
2.000000000000e+00 -4.513647342998e-61 
2.100000000000e+00 1.869079829639e-61 
2.200000000000e+00 2.710579689739e-60 
2.300000000000e+00 1.092283429019e-59 
2.400000000000e+00 1.398536403428e-58 
2.500000000000e+00 1.561546149988e-57 
2.600000000000e+00 7.749011087222e-57 
2.700000000000e+00 4.970991313627e-57 
2.800000000000e+00 -2.005681178442e-58 
2.900000000000e+00 -1.079765563505e-59 
3.000000000000e+00 6.092712173757e-60 
3.100000000000e+00 -1.686917567977e-60 
3.200000000000e+00 4.337349731688e-61 
3.300000000000e+00 -1.112657464633e-61 
3.400000000000e+00 2.862624536918e-62 
3.500000000000e+00 -7.350023525745e-63 
3.600000000000e+00 1.877065084017e-63 
3.700000000000e+00 -4.757421402870e-64 
3.800000000000e+00 1.178804273735e-64 
3.900000000000e+00 -2.499538612238e-65 
4.000000000000e+00 0.000000000000e+00 
 ZONE T="TIME=1.224000000000e+05"
0.000000000000e+00 0.000000000000e+00 
1.000000000000e-01 1.183079877920e-74 
2.000000000000e-01 -1.077133400692e-72 
3.000000000000e-01 8.003931274997e-72 
4.000000000000e-01 -3.860428688306e-71 
5.000000000000e-01 1.134098079055e-70 
6.000000000000e-01 1.016808671451e-70 
7.000000000000e-01 -2.905594296507e-69 
8.000000000000e-01 9.878359768025e-69 
9.000000000000e-01 2.424847005935e-68 
1.000000000000e+00 -4.269494525859e-67 
1.100000000000e+00 2.934614450445e-66 
1.200000000000e+00 -1.623010826660e-65 
1.300000000000e+00 8.499320358068e-65 
1.400000000000e+00 -4.506000143756e-64 
1.500000000000e+00 2.524288940283e-63 
1.600000000000e+00 -1.560403019033e-62 
1.700000000000e+00 9.523299877028e-62 
1.800000000000e+00 1.036156932143e-61 
1.900000000000e+00 -3.462243982612e-60 
2.000000000000e+00 -4.680160194968e-60 
2.100000000000e+00 2.100561530460e-60 
2.200000000000e+00 2.827010935516e-59 
2.300000000000e+00 1.157988233682e-58 
2.400000000000e+00 1.450043545693e-57 
2.500000000000e+00 1.599657671492e-56 
2.600000000000e+00 7.871354173535e-56 
2.700000000000e+00 5.101083773291e-56 
2.800000000000e+00 -1.520253705999e-57 
2.900000000000e+00 -2.061720897961e-58 
3.000000000000e+00 7.917636743188e-59 
3.100000000000e+00 -2.057905197337e-59 
3.200000000000e+00 5.164182248892e-60 
3.300000000000e+00 -1.308624211918e-60 
3.400000000000e+00 3.342959740117e-61 
3.500000000000e+00 -8.546993732485e-62 
3.600000000000e+00 2.178535797901e-62 
3.700000000000e+00 -5.527893377367e-63 
3.800000000000e+00 1.379840116186e-63 
3.900000000000e+00 -3.003097901285e-64 
4.000000000000e+00 0.000000000000e+00 
 ZONE T="TIME=1.296000000000e+05"
0.000000000000e+00 0.000000000000e+00 
1.000000000000e-01 -3.791924441619e-73 